file_name,formula,atom_num,formation_energy,B_element,X_element,sites,perovskite_judge
ICSD-5498.cif,Cs2 Sc6 F20,28,-3.8486387864285714,['Sc'],['F'],"[2, 3]",perovskite
ICSD-55443.cif,Zn4 V8 O16,28,-1.9991864196428568,['V'],['O'],"[0, 1, 2, 3, 4, 5, 6, 7]",perovskite
ICSD-55467.cif,Re8 O24,32,-1.6103019209375002,['Re'],['O'],"[0, 1, 2, 3, 4, 5, 6, 7]",perovskite
ICSD-55536.cif,Ba3 Zn N2 O,7,-1.0029561657142865,['Ba'],"['N', 'O']",[0],perovskite
ICSD-5557.cif,Pb4 S4,8,-0.68078551875,['Pb'],['S'],"[0, 1, 2, 3, 4, 5, 6, 7]",perovskite
ICSD-55647.cif,Nb8 Ag8 O24,40,-1.96263829075,['Nb'],['O'],"[0, 1, 2, 3, 4, 5, 6, 7]",perovskite
ICSD-55649.cif,Nb Ag O3,5,-1.9471237380000008,['Nb'],['O'],[0],perovskite
ICSD-55655.cif,La12 Ta4 O28,44,-3.3175680425000014,['Ta'],['O'],"[12, 13, 14, 15]",perovskite
ICSD-55667.cif,Ca6 Mn4 O14,24,-2.289034590244253,['Mn'],['O'],"[6, 7, 8, 9]",perovskite
ICSD-55973.cif,La6 Mn6 O18,30,-2.4914442794597704,['Mn'],['O'],"[6, 7, 8, 9, 10, 11]",perovskite
ICSD-56004.cif,Te2 O4,6,-0.8259588005555555,['Te'],['O'],"[0, 1]",perovskite
ICSD-56010.cif,Ti Se2,3,-1.124239103333334,['Ti'],['Se'],[0],perovskite
ICSD-56013.cif,Zr Se2,3,-1.4415424811111113,['Zr'],['Se'],[0],perovskite
ICSD-56018.cif,Nb2 O4,6,-2.617543663333334,['Nb'],['O'],"[0, 1]",perovskite
ICSD-56091.cif,Ca3 Mg3 C6 O18,30,-2.174935372666667,"['Mg', 'Ca']",['O'],"[0, 1, 2, 3, 4, 5]",perovskite
ICSD-56095.cif,Ca Sn O3,5,-2.0779380107500005,['Sn'],['O'],[1],perovskite
ICSD-56097.cif,K Zn F3,5,-2.55769441625,['Zn'],['F'],[1],perovskite
ICSD-56147.cif,Mg3 Cl6,9,-1.8663614019444443,['Mg'],['Cl'],"[0, 1, 2]",perovskite
ICSD-56166.cif,La2 O3,5,-3.294327042,['O'],['La'],[2],anti-perovskite
ICSD-56210.cif,Hg4 Se4,8,-0.0538377145833335,['Hg'],['Se'],"[0, 1, 2, 3, 4, 5, 6, 7]",perovskite
ICSD-56251.cif,Na4 Sb4 F24,32,-2.53860990125,"['Na', 'Sb']",['F'],"[0, 1, 2, 3, 4, 5, 6, 7]",perovskite
ICSD-56257.cif,P3 K3 F18,24,-2.7668517088244045,['P'],['F'],"[3, 4, 5]",perovskite
ICSD-56288.cif,Co2 O4 H2,8,-1.6521653131250005,['Co'],['O'],"[0, 1]",perovskite
ICSD-56531.cif,In3 Li3 Se6,12,-0.801207785833333,"['Li', 'In']",['Se'],"[0, 1, 2, 3, 4, 5, 6, 7, 8, 9, 10, 11]",perovskite
ICSD-56538.cif,Ag4 Cl4,8,-0.4902422018750001,['Ag'],['Cl'],"[0, 1, 2, 3, 4, 5, 6, 7]",perovskite
ICSD-56556.cif,Ag4 I4,8,-0.244365046875,['Ag'],['I'],"[0, 1, 2, 3, 4, 5, 6, 7]",perovskite
ICSD-56568.cif,As6 I18,24,-0.2198133832291664,['As'],['I'],"[0, 1, 2, 3, 4, 5]",perovskite
ICSD-56569.cif,Sb6 I18,24,-0.3824997803125004,['Sb'],['I'],"[0, 1, 2, 3, 4, 5]",perovskite
ICSD-56577.cif,Sr6 Ru4 O14,24,-2.031796555416667,['Ru'],['O'],"[6, 7, 8, 9]",perovskite
ICSD-56677.cif,Sn4 O8,12,-1.5514825212500007,['Sn'],['O'],"[0, 1, 2, 3]",perovskite
ICSD-56698.cif,Ru4 Ca4 O12,20,-1.8986011345,['Ru'],['O'],"[4, 5, 6, 7]",perovskite
ICSD-56718.cif,Sr4 Ti4 O12,20,-3.173381425333333,['Ti'],['O'],"[4, 5, 6, 7]",perovskite
ICSD-56768.cif,Ca2 Br4,6,-2.0551308133333337,['Ca'],['Br'],"[0, 1]",perovskite
ICSD-56769.cif,Ca4 Cl8,12,-2.401090663333333,['Ca'],['Cl'],"[0, 1, 2, 3]",perovskite
ICSD-56898.cif,Zr2 K4 Si6 O18,30,-2.8730523216666675,['Zr'],['O'],"[4, 5]",perovskite
ICSD-57156.cif,Zn4 O4,8,-1.2955744449999995,['Zn'],['O'],"[0, 1, 2, 3, 4, 5, 6, 7]",perovskite
ICSD-5839.cif,Ba12 I4 Ga4 S16,36,-1.8316726763888893,['I'],['Ba'],"[32, 33, 34, 35]",anti-perovskite
ICSD-59003.cif,K4 Cu4 Al4 F24,36,-2.7385692305555565,['Al'],['F'],"[4, 5, 6, 7]",perovskite
ICSD-59102.cif,Cs8 K4 Cu4 F24,40,-2.22932809825,"['Cu', 'K']",['F'],"[8, 9, 10, 11, 12, 13, 14, 15]",perovskite
ICSD-59124.cif,Sc2 Cl2 C,5,-1.5250722175,['C'],['Sc'],[2],anti-perovskite
ICSD-59131.cif,Sb4 Te4 Cl12 F24,44,-1.712804724128788,['Sb'],['F'],"[0, 1, 2, 3]",perovskite
ICSD-59175.cif,K3 V3 S6 O24,36,-1.7318531301388889,['V'],['O'],"[3, 4, 5]",perovskite
ICSD-59196.cif,Cs8 K4 Sc4 Cl24,40,-2.11740943725,"['K', 'Sc']",['Cl'],"[8, 9, 10, 11, 12, 13, 14, 15]",perovskite
ICSD-59230.cif,Ni Ga2 S4,7,-0.7139182353571429,['Ni'],['S'],[2],perovskite
ICSD-59271.cif,Ba12 Zr8 S28,48,-2.0787988166666667,['Zr'],['S'],"[12, 13, 14, 15, 16, 17, 18, 19]",perovskite
ICSD-59347.cif,Cd4 Se4 O16 H8,32,-1.0192619055208336,['Cd'],['O'],"[0, 1, 2, 3]",perovskite
ICSD-59353.cif,Cs12 Zn4 I20,36,-1.2951013456944445,['I'],['Cs'],"[24, 25, 26, 27]",anti-perovskite
ICSD-59367.cif,As4 O4 H8 F24 Li4,44,-2.018743049621212,"['Li', 'As']","['O', 'F']","[0, 1, 2, 3, 4, 5, 6, 7]",perovskite
ICSD-59371.cif,Cs2 Ni2 Cl6,10,-1.15228739325,['Ni'],['Cl'],"[2, 3]",perovskite
ICSD-59413.cif,K3 As3 F18,24,-2.4179233294791667,['As'],['F'],"[3, 4, 5]",perovskite
ICSD-59601.cif,Ta Bi4 Cl O8,14,-1.646318142589286,['Ta'],['O'],[0],perovskite
ICSD-59664.cif,La12 Os4 O28,44,-2.6287459502272723,['Os'],['O'],"[12, 13, 14, 15]",perovskite
ICSD-59799.cif,Tl8 Sr12 O24,44,-1.854508715,['Sr'],['O'],"[0, 1, 2, 3, 4, 5, 6, 7]",perovskite
ICSD-5983.cif,Li2 Fe2 Cr8 O16,28,-1.7852108402380955,['Cr'],['O'],"[2, 3, 4, 5, 6, 7, 8, 9]",perovskite
ICSD-59855.cif,Cs8 Bi8 Zn4 Se20,40,-0.7950715290833333,['Bi'],['Se'],"[12, 13, 14, 15]",perovskite
ICSD-59894.cif,Ta4 Cl24 K8,36,-1.6091290786111108,['Ta'],['Cl'],"[8, 9, 10, 11]",perovskite
ICSD-59924.cif,Ag12 Ru4 O16,32,-0.4400285296875004,['Ru'],['O'],"[12, 13, 14, 15]",perovskite
ICSD-59972.cif,Cr6 F18,24,-2.3041733753125,['Cr'],['F'],"[0, 1, 2, 3, 4, 5]",perovskite
ICSD-59999.cif,Zr Mo2 O8,11,-2.4578349563636364,['Zr'],['O'],[0],perovskite
ICSD-60079.cif,Ge2 S4 F24,30,-1.940777248,['Ge'],['F'],"[0, 1]",perovskite
ICSD-60199.cif,Ca4 O4,8,-2.97340766875,['Ca'],['O'],"[0, 1, 2, 3, 4, 5, 6, 7]",perovskite
ICSD-601.cif,Sr8 Ta8 O28,44,-3.1166103559090903,['Ta'],['O'],"[12, 13, 14, 15]",perovskite
ICSD-60204.cif,Hg4 Te4,8,-0.0258478583333332,['Hg'],['Te'],"[0, 1, 2, 3, 4, 5, 6, 7]",perovskite
ICSD-60208.cif,La12 Se16,28,-1.9307114945238093,['Se'],['La'],"[12, 13, 14, 15, 16, 17, 18, 19, 20, 21, 22, 23, 24, 25, 26, 27]",anti-perovskite
ICSD-60243.cif,Ti6 K10 F28,44,-3.135983531931818,['Ti'],['F'],"[10, 11, 12, 13, 14, 15]",perovskite
ICSD-60250.cif,Mn Br2,3,-0.6563522529885054,['Mn'],['Br'],[0],perovskite
ICSD-60261.cif,Rb2 Ni2 Cl6,10,-1.12994875975,['Ni'],['Cl'],"[2, 3]",perovskite
ICSD-60327.cif,Pb4 I8,12,-0.6906757774999998,['Pb'],['I'],"[0, 1, 2, 3]",perovskite
ICSD-60328.cif,I30 Pb15,45,-0.6910611838888889,['Pb'],['I'],"[0, 1, 2, 3, 4, 5, 6, 7, 8, 9, 10, 11, 12, 13, 14]",perovskite
ICSD-6036.cif,Cs8 Tl4 Fe4 F24,40,-2.43934804725,"['Fe', 'Tl']",['F'],"[8, 9, 10, 11, 12, 13, 14, 15]",perovskite
ICSD-6037.cif,Cs8 K4 Co4 F24,40,-2.7616845065,"['K', 'Co']",['F'],"[8, 9, 10, 11, 12, 13, 14, 15]",perovskite
ICSD-6038.cif,Ba3 Rh3 F18,24,-2.5404073509375,['Rh'],['F'],"[3, 4, 5]",perovskite
ICSD-6039.cif,Cs8 K4 Ni4 F24,40,-2.4235042332500005,"['K', 'Ni']",['F'],"[8, 9, 10, 11, 12, 13, 14, 15]",perovskite
ICSD-6043.cif,Cs4 Fe4 F16,24,-2.4915167366666666,['Fe'],['F'],"[4, 5, 6, 7]",perovskite
ICSD-6047.cif,K4 Pd4 F12,20,-1.89328316925,['Pd'],['F'],"[4, 5, 6, 7]",perovskite
ICSD-604866.cif,Ag3 Bi3 Te6,12,-0.1652351624999995,"['Ag', 'Bi']",['Te'],"[0, 1, 2, 3, 4, 5, 6, 7, 8, 9, 10, 11]",perovskite
ICSD-60486.cif,V4 O4,8,-1.5302782387500002,['V'],['O'],"[0, 1, 2, 3, 4, 5, 6, 7]",perovskite
ICSD-60524.cif,Al2 K2 F8,12,-3.3578346829166668,['Al'],['F'],"[2, 3]",perovskite
ICSD-60571.cif,Cd4 S4 O16,24,-1.4284846020833335,['Cd'],['O'],"[0, 1, 2, 3]",perovskite
ICSD-60611.cif,Na V F3,5,-2.29474773425,['V'],['F'],[1],perovskite
ICSD-60615.cif,K4 Fe4 F16,24,-2.5051979125,['Fe'],['F'],"[4, 5, 6, 7]",perovskite
ICSD-60616.cif,K8 Fe8 F32,48,-2.5177627727083327,['Fe'],['F'],"[8, 9, 10, 11, 12, 13, 14, 15]",perovskite
ICSD-606794.cif,La6 Cr2 Al2 S14,24,-1.8154993397916668,['Cr'],['S'],"[8, 9]",perovskite
ICSD-60761.cif,Pt12 I32,44,-0.2458562334090908,['Pt'],['I'],"[0, 1, 2, 3]",perovskite
ICSD-608303.cif,La6 Mn2 Al2 S14,24,-1.86045475470546,['Mn'],['S'],"[6, 7]",perovskite
ICSD-60846.cif,Cu3 Ga3 O6,12,-1.3613341061458335,['Ga'],['O'],"[0, 1, 2]",perovskite
ICSD-60848.cif,Cu3 Y3 O6,12,-2.4565621881250004,['Y'],['O'],"[0, 1, 2]",perovskite
ICSD-60882.cif,Ba3 Si3 F18,24,-3.5174472505208327,['Si'],['F'],"[3, 4, 5]",perovskite
ICSD-60963.cif,Sb6 Te3 Se6,15,-0.2263455133333333,['Sb'],"['Se', 'Te']","[0, 1, 2, 3, 4, 5, 12, 13, 14]",perovskite
ICSD-61042.cif,Os8 Br32,40,-0.18862089275,['Os'],['Br'],"[0, 1, 2, 3, 4, 5, 6, 7]",perovskite
ICSD-61066.cif,Co6 C6 O18,30,-1.373279587000001,['Co'],['O'],"[0, 1, 2, 3, 4, 5]",perovskite
ICSD-61147.cif,Ta8 Ni4 S20,32,-1.1795699362499992,['Ta'],['S'],"[0, 1, 2, 3, 4, 5, 6, 7]",perovskite
ICSD-61198.cif,Ni2 Ta4 O12,18,-2.3843580383333336,"['Ta', 'Ni']",['O'],"[0, 1, 2, 3, 4, 5]",perovskite
ICSD-61217.cif,Ir3 Li24 O18,45,-1.709638665,['Ir'],['O'],"[24, 25, 26]",perovskite
ICSD-61218.cif,Pt3 Li24 O18,45,-1.701989585,['Pt'],['O'],"[24, 25, 26]",perovskite
ICSD-61274.cif,Si3 Na6 F18,27,-3.0914415769444448,"['Na', 'Si']",['F'],"[0, 1, 2, 6, 7, 8]",perovskite
ICSD-61277.cif,Fe4 Na4 K8 F24,40,-2.67095881075,"['Na', 'Fe']",['F'],"[8, 9, 10, 11, 12, 13, 14, 15]",perovskite
ICSD-61323.cif,Cu4 O4,8,-0.4327120187500002,['Cu'],['O'],"[0, 1, 2, 3, 4, 5, 6, 7]",perovskite
ICSD-61355.cif,Te36 Na12,48,-0.3897693162499998,['Na'],['Te'],"[0, 1, 2, 3, 4, 5, 6, 7, 8, 9, 10, 11]",perovskite
ICSD-6135.cif,Ba4 Fe2 Mo2 O12,20,-2.4618036455000007,"['Mo', 'Fe']",['O'],"[4, 5, 6, 7]",perovskite
ICSD-61402.cif,Tl4 K8 Na12 O16,40,-1.2002490547500002,['K'],['O'],"[4, 5, 6, 7]",perovskite
ICSD-61504.cif,Na4 I4,8,-1.291341213125,['Na'],['I'],"[0, 1, 2, 3, 4, 5, 6, 7]",perovskite
ICSD-61514.cif,Na2 Cu10 S6,18,-0.5214627708333334,['Na'],['S'],"[0, 1]",perovskite
ICSD-61516.cif,Cs4 Br4,8,-1.81452096125,['Cs'],['Br'],"[0, 1, 2, 3, 4, 5, 6, 7]",perovskite
ICSD-61517.cif,Cs4 I4,8,-1.581692681875,['Cs'],['I'],"[0, 1, 2, 3, 4, 5, 6, 7]",perovskite
ICSD-61518.cif,Tl4 Cl4,8,-1.0184540256249996,['Tl'],['Cl'],"[0, 1, 2, 3, 4, 5, 6, 7]",perovskite
ICSD-61519.cif,Tl4 Br4,8,-0.88815862,['Tl'],['Br'],"[0, 1, 2, 3, 4, 5, 6, 7]",perovskite
ICSD-6152.cif,Na3 Co3 O6,12,-1.9096101141666668,"['Na', 'Co']",['O'],"[0, 1, 2, 3, 4, 5]",perovskite
ICSD-61540.cif,Ag4 I4,8,-0.244312893125,['Ag'],['I'],"[0, 1, 2, 3, 4, 5, 6, 7]",perovskite
ICSD-61543.cif,Nb4 O4,8,-1.2940924925000008,['Nb'],['O'],"[0, 1, 2, 3, 4, 5, 6, 7]",perovskite
ICSD-616071.cif,Sn4 Ba4 S12,20,-1.26045916275,['Sn'],['S'],"[4, 5, 6, 7]",perovskite
ICSD-61627.cif,Sc4 O4,8,-2.7127154562500007,['Sc'],['O'],"[0, 1, 2, 3, 4, 5, 6, 7]",perovskite
ICSD-61692.cif,Ir3 K3 Li18 O18,42,-1.6162643742857146,['Ir'],['O'],"[21, 22, 23]",perovskite
ICSD-61708.cif,Ag3 As3 Se6,12,-0.094794259166667,"['Ag', 'As']",['Se'],"[0, 1, 2, 3, 4, 5, 6, 7, 8, 9, 10, 11]",perovskite
ICSD-61787.cif,Sc Cs K2 P2 O8,14,-2.5789172008588435,['Sc'],['O'],[3],perovskite
ICSD-61788.cif,Sb3 K3 P6 O24,36,-2.0121976899603182,['Sb'],['O'],"[3, 4, 5]",perovskite
ICSD-62027.cif,Hg3 Nb F6,10,-2.19405867775,['Nb'],['F'],[0],perovskite
ICSD-62032.cif,Cs4 Cu8 F24,36,-1.7908595952777775,"['Cu', 'Cs']",['F'],"[0, 1, 2, 3, 4, 5, 6, 7, 8, 9, 10, 11]",perovskite
ICSD-62048.cif,W3 Br18,21,-0.5309454138095239,['W'],['Br'],"[0, 1, 2]",perovskite
ICSD-620548.cif,Cd Tl Te2,4,-0.2230376720833331,"['Tl', 'Cd']",['Te'],"[0, 1]",perovskite
ICSD-62091.cif,Al8 Be4 O16,28,-2.973844477857144,['Al'],['O'],"[4, 5, 6, 7, 8, 9, 10, 11]",perovskite
ICSD-6210.cif,Cd4 Na4 P4 O16,28,-2.0159763010374148,['Na'],['O'],"[0, 1, 2, 3]",perovskite
ICSD-62132.cif,Cr4 As4 O16,24,-1.4086831716666666,['Cr'],['O'],"[0, 1, 2, 3]",perovskite
ICSD-62150.cif,Cd4 Ti4 O12,20,-2.2536014053333338,['Ti'],['O'],"[0, 1, 2, 3]",perovskite
ICSD-62159.cif,Cr4 P4 O16,24,-1.9965391132936503,['Cr'],['O'],"[0, 1, 2, 3]",perovskite
ICSD-62199.cif,Sn12 O24,36,-1.6408851998611114,['Sn'],['O'],"[0, 1, 2, 3, 4, 5, 6, 7, 8, 9, 10, 11]",perovskite
ICSD-62202.cif,Cd Cl2,3,-1.0884866558333333,['Cd'],['Cl'],[0],perovskite
ICSD-62225.cif,Cs3 Mo4 P3 O16,26,-2.160540922568681,['Mo'],['O'],"[3, 4, 5, 6]",perovskite
ICSD-62229.cif,Li4 In4 Ge4 O16,28,-1.7937283347619046,"['Li', 'In']",['O'],"[0, 1, 2, 3, 4, 5, 6, 7]",perovskite
ICSD-62262.cif,Rh6 F18,24,-1.798514510729167,['Rh'],['F'],"[0, 1, 2, 3, 4, 5]",perovskite
ICSD-62481.cif,Li4 Sc4 Ge4 O16,28,-2.5056341886904763,['Sc'],['O'],"[4, 5, 6, 7]",perovskite
ICSD-62555.cif,Ca6 N3 Cl3,12,-1.567335733020834,['N'],['Ca'],"[6, 7, 8]",anti-perovskite
ICSD-626052.cif,Cr Ga2 S4,7,-0.6640950332142863,['Cr'],['S'],[0],perovskite
ICSD-62661.cif,Nb6 Mn3 O11,20,-2.0828851543448272,['Mn'],['O'],[0],perovskite
ICSD-62662.cif,Nb6 Mg3 O11,20,-2.5167756795000003,['Mg'],['O'],[0],perovskite
ICSD-6279.cif,I32 Cd16,48,-0.6016194052083333,['Cd'],['I'],"[0, 1, 2, 3, 4, 5, 6, 7, 8, 9, 10, 11, 12, 13, 14, 15]",perovskite
ICSD-62960.cif,Sr8 Sb8 O28,44,-2.1398759656818176,"['Sb', 'Sr']",['O'],"[0, 1, 2, 3, 8, 9, 10, 11, 12, 13, 14, 15]",perovskite
ICSD-63096.cif,Pb4 Se4,8,-0.5707681583333337,['Pb'],['Se'],"[0, 1, 2, 3, 4, 5, 6, 7]",perovskite
ICSD-630.cif,Hg4 Cs12 Cl20,36,-1.5537359870833334,['Cl'],['Cs'],"[32, 33, 34, 35]",anti-perovskite
ICSD-63157.cif,Zn K F3,5,-2.55769600225,['Zn'],['F'],[1],perovskite
ICSD-63174.cif,Ge5 Te8 As2,15,-0.0518431175555553,['Ge'],"['As', 'Te']","[0, 1, 2, 3, 4, 5, 6, 7, 8, 9, 10, 13, 14]",perovskite
ICSD-6320.cif,Ca8 Fe4 Ga4 O20,36,-2.3323976348611115,['Fe'],['O'],"[12, 13, 14, 15]",perovskite
ICSD-6321.cif,Rb2 In4 O7,13,-1.5408552261538455,['In'],['O'],"[2, 3]",perovskite
ICSD-63228.cif,Ba4 V4 S12,20,-1.562341833,['V'],['S'],"[4, 5, 6, 7]",perovskite
ICSD-6325.cif,Tl8 Sn4 O12,24,-1.159703051875,['Sn'],['O'],"[8, 9, 10, 11]",perovskite
ICSD-63287.cif,Ag2 Sb2 F12 N4 C4 H4,28,-1.1112095316071426,['Sb'],['F'],"[2, 3]",perovskite
ICSD-632.cif,K2 Sb2 F12,16,-2.5776598278125,['Sb'],['F'],"[2, 3]",perovskite
ICSD-63307.cif,F18 Fe3 Nb3,24,-2.8169119186458333,"['Nb', 'Fe']",['F'],"[0, 1, 2, 3, 4, 5]",perovskite
ICSD-63340.cif,Tl6 Cd4 I14,24,-0.6497332459375,['I'],"['Tl', 'Cd']","[22, 23]",anti-perovskite
ICSD-63353.cif,Ni6 As6 Na6 O24,42,-1.236260126666667,['Ni'],['O'],"[6, 7, 8, 9, 10, 11]",perovskite
ICSD-63477.cif,Mg4 Li4 V4 O16,28,-2.5487285383333336,['Mg'],['O'],"[4, 5, 6, 7]",perovskite
ICSD-63544.cif,K6 Ni6 As6 O24,42,-1.2771594230952383,['Ni'],['O'],"[6, 7, 8, 9, 10, 11]",perovskite
ICSD-63663.cif,Mg6 C6 O18,30,-2.053641265000001,['Mg'],['O'],"[0, 1, 2, 3, 4, 5]",perovskite
ICSD-64613.cif,Re4 Cs8 Cl24,36,-1.2491691608333335,['Re'],['Cl'],"[8, 9, 10, 11]",perovskite
ICSD-64661.cif,Pd3 Pt3 F18,24,-1.2806537284375,"['Pt', 'Pd']",['F'],"[0, 1, 2, 3, 4, 5]",perovskite
ICSD-64677.cif,Ba4 Cr8 O16,28,-1.9790813332142856,['Cr'],['O'],"[4, 5, 6, 7, 8, 9, 10, 11]",perovskite
ICSD-65010.cif,Sc6 B6 O18,30,-3.0619692865,['Sc'],['O'],"[0, 1, 2, 3, 4, 5]",perovskite
ICSD-65037.cif,Pd4 Cl24 K8,36,-1.162509819722222,['Pd'],['Cl'],"[8, 9, 10, 11]",perovskite
ICSD-65057.cif,Te4 Br24 Cs8,36,-1.1193106724074071,['Te'],['Br'],"[8, 9, 10, 11]",perovskite
ICSD-65062.cif,Ag4 Br4,8,-0.3874406450000003,['Ag'],['Br'],"[0, 1, 2, 3, 4, 5, 6, 7]",perovskite
ICSD-651944.cif,Sr4 Y8 Se16,28,-1.9757182009523808,['Y'],['Se'],"[4, 5, 6, 7, 8, 9, 10, 11]",perovskite
ICSD-65216.cif,Ca4 N2 I2,8,-1.1835028678125,['N'],['Ca'],"[6, 7]",anti-perovskite
ICSD-65217.cif,Ca6 P3 I3,12,-1.4201735987946424,"['P', 'I']",['Ca'],"[6, 7, 8, 9, 10, 11]",anti-perovskite
ICSD-65412.cif,Pt9 Ca6 O24,39,-1.4801861275641028,['Pt'],['O'],"[6, 7, 8, 9, 10, 11, 12, 13, 14]",perovskite
ICSD-6543.cif,La8 Ni4 O12 F8,32,-3.0007777965625,['Ni'],"['F', 'O']","[8, 9, 10, 11]",perovskite
ICSD-654688.cif,In2 S4 Tl2,8,-0.6545802050000002,['In'],['S'],"[2, 3]",perovskite
ICSD-65503.cif,Cs8 Na4 Fe4 F24,40,-2.63648360625,"['Na', 'Fe']",['F'],"[8, 9, 10, 11, 12, 13, 14, 15]",perovskite
ICSD-65547.cif,Cu3 Sc3 O6,12,-2.420908841041667,['Sc'],['O'],"[0, 1, 2]",perovskite
ICSD-65549.cif,Ba8 Y2 Cu6 O18,34,-2.029805486323529,['Y'],['O'],"[8, 9]",perovskite
ICSD-656252.cif,Mn8 Ge4 S16,28,-0.6589097625615763,['Mn'],['S'],"[0, 1, 2, 3, 4, 5, 6, 7]",perovskite
ICSD-65640.cif,Te2 K4 O6,12,-1.5384114602777783,['K'],['O'],"[0, 1]",perovskite
ICSD-65667.cif,Sn4 Hf4 S12,20,-1.34113295725,['Hf'],['S'],"[0, 1, 2, 3]",perovskite
ICSD-65668.cif,Pb4 Hf4 S12,20,-1.3682384220000003,['Hf'],['S'],"[0, 1, 2, 3]",perovskite
ICSD-65677.cif,Li4 Cu4 V4 O16,28,-1.8203516819047616,['Li'],['O'],"[0, 1, 2, 3]",perovskite
ICSD-65702.cif,Fe2 F4,6,-2.5373544058333333,['Fe'],['F'],"[0, 1]",perovskite
ICSD-65710.cif,Mn8 Si4 S16,28,-0.7958904814901478,['Mn'],['S'],"[0, 1, 2, 3, 4, 5, 6, 7]",perovskite
ICSD-65712.cif,Cs Br F6,8,-1.559514535625,['Br'],['F'],[1],perovskite
ICSD-65731.cif,Cs8 Li4 Y4 Cl24,40,-2.1454299020833334,"['Li', 'Y']",['Cl'],"[8, 9, 10, 11, 12, 13, 14, 15]",perovskite
ICSD-65733.cif,Cs8 Na4 Y4 Br24,40,-1.8701399275,"['Na', 'Y']",['Br'],"[8, 9, 10, 11, 12, 13, 14, 15]",perovskite
ICSD-657483.cif,Zr2 Te2,4,-0.8076270008333335,['Zr'],['Te'],"[0, 1]",perovskite
ICSD-657508.cif,Se8 Ru4,12,-0.550592481944444,['Ru'],['Se'],"[0, 1, 2, 3]",perovskite
ICSD-65751.cif,Co8 Si4 O16,28,-1.99050957,['Co'],['O'],"[0, 1, 2, 3, 4, 5, 6, 7]",perovskite
ICSD-657607.cif,In6 Te9,15,-0.2438620306666664,['In'],['Te'],"[0, 1, 2, 3, 4, 5, 12, 13, 14]",perovskite
ICSD-657608.cif,Te9 Ga6,15,-0.0004647961666663,['Ga'],"['Ga', 'Te']","[0, 1, 2, 3, 4, 5, 6, 7, 8]",perovskite
ICSD-65770.cif,Mn4 Na4 F12,20,-2.452143127543104,['Mn'],['F'],"[4, 5, 6, 7]",perovskite
ICSD-6579.cif,Mg4 V8 O16,28,-2.3329056396428567,['V'],['O'],"[4, 5, 6, 7, 8, 9, 10, 11]",perovskite
ICSD-6580.cif,Fe4 V8 O16,28,-1.9157401014285715,['V'],['O'],"[0, 1, 2, 3, 4, 5, 6, 7]",perovskite
ICSD-6581.cif,Mn4 Cr8 O16,28,-1.549384191995075,['Cr'],['O'],"[4, 5, 6, 7]",perovskite
ICSD-658633.cif,Bi6 Ge3 Te12,21,-0.1907656290476189,"['Bi', 'Ge']",['Te'],"[0, 1, 2, 3, 4, 5, 6, 7, 8, 15, 16, 17, 18, 19, 20]",perovskite
ICSD-659166.cif,Ba4 Cu4 Y4 S12,24,-1.879862583333333,['Y'],['S'],"[4, 5, 6, 7]",perovskite
ICSD-659169.cif,Ba4 Cu4 Y4 Se12,24,-1.6187692687499995,['Y'],['Se'],"[4, 5, 6, 7]",perovskite
ICSD-659172.cif,Ba4 Ag4 La4 Se12,24,-1.582873723333334,['La'],['Se'],"[4, 5, 6, 7]",perovskite
ICSD-659260.cif,S8 Ir4,12,-0.5618960116666667,['Ir'],['S'],"[0, 1, 2, 3]",perovskite
ICSD-659541.cif,Ba2 Ta2 S6,10,-1.6800789559999998,['Ta'],['S'],"[2, 3]",perovskite
ICSD-659985.cif,S4 Zr4,8,-1.4546442387500005,['Zr'],['S'],"[0, 1, 2, 3, 4, 5, 6, 7]",perovskite
ICSD-66028.cif,K18 C6 O18 F6,48,-2.0170587235937507,['F'],['K'],"[42, 43, 44, 45, 46, 47]",anti-perovskite
ICSD-66029.cif,Rb18 C6 O18 F6,48,-1.9752997144270832,['F'],['Rb'],"[42, 43, 44, 45, 46, 47]",anti-perovskite
ICSD-6608.cif,Ba8 Mn Nb6 O24,39,-2.901273661511937,"['Nb', 'Mn']",['O'],"[8, 11, 12, 13, 14]",perovskite
ICSD-66170.cif,Cd6 B4 O12,22,-1.7210276977272718,['Cd'],['O'],"[0, 1, 2, 3, 4, 5]",perovskite
ICSD-66356.cif,In2 Si2 Te6,10,-0.21301767,['In'],['Te'],"[0, 1]",perovskite
ICSD-66541.cif,Fe4 P6 O18 H6,34,-1.5847783189285716,['Fe'],['O'],"[0, 1, 2, 3]",perovskite
ICSD-66543.cif,Ba4 Pb2 O8,14,-1.9802866767857144,['Pb'],['O'],"[4, 5]",perovskite
ICSD-66546.cif,Cu2 Fe2 O4,8,-1.248643584375,['Fe'],['O'],"[0, 1]",perovskite
ICSD-66555.cif,Na8 S4 O16,28,-1.8691864671428573,['Na'],['O'],"[0, 1, 2, 3]",perovskite
ICSD-66583.cif,Tl Ba2 Cu O5,9,-1.4988540130555554,['O'],"['Ba', 'Tl']",[4],anti-perovskite
ICSD-66665.cif,V2 O4,6,-2.3792908,['V'],['O'],"[0, 1]",perovskite
ICSD-66693.cif,Li4 In4 F16,24,-2.6786234609722217,"['Li', 'In']",['F'],"[0, 1, 2, 3, 4, 5, 6, 7]",perovskite
ICSD-66822.cif,Ba9 Mn9 O27,45,-2.154796620793103,['Mn'],['O'],"[9, 10, 11, 12, 13, 14, 15, 16, 17]",perovskite
ICSD-66828.cif,Mg4 Cs6 Cl14,24,-1.9492050830208327,['Mg'],['Cl'],"[6, 7, 8, 9]",perovskite
ICSD-66911.cif,Zn2 P4 O8 H8,22,-1.111278255865801,['Zn'],['O'],"[0, 1]",perovskite
ICSD-67146.cif,Cs8 K4 Ti4 F24,40,-3.0507844786666665,"['K', 'Ti']",['F'],"[8, 9, 10, 11, 12, 13, 14, 15]",perovskite
ICSD-67147.cif,Rb8 K4 Ti4 F24,40,-3.028517776166667,"['K', 'Ti']",['F'],"[0, 1, 2, 3, 12, 13, 14, 15]",perovskite
ICSD-67243.cif,O2 Na8 I4,14,-1.2934017839285716,['O'],['Na'],"[12, 13]",anti-perovskite