file_name,formula,atom_num,formation_energy,B_element,X_element,sites,perovskite_judge
ICSD-628469.cif,Cu2 Nb6 S8,16,-0.7882975078124996,['Nb'],['S'],"[0, 1, 2, 3, 4, 5]",perovskite
ICSD-391382.cif,Na8 Te8 O28,44,-1.2610448862121215,['Te'],['O'],"[12, 13, 14, 15]",perovskite
ICSD-257146.cif,Ba8 Sc4 Ir4 O24,40,-2.365544261,"['Sc', 'Ir']",['O'],"[8, 9, 10, 11, 12, 13, 14, 15]",perovskite
ICSD-290491.cif,Li4 Ru8 O16,28,-1.307285996904762,['Ru'],['O'],"[4, 5, 6, 7, 8, 9, 10, 11]",perovskite
ICSD-405782.cif,Pb4 Co2 Te2 O12,20,-1.1698219526666669,"['Te', 'Co']",['O'],"[0, 1, 2, 3]",perovskite
ICSD-628791.cif,Cu4 S8,12,-0.2841068133333333,['Cu'],['S'],"[0, 1, 2, 3]",perovskite
ICSD-412940.cif,Re2 I12 N4 H16,34,-0.2863339142647063,['Re'],['I'],"[0, 1]",perovskite
ICSD-291311.cif,Ca2 Cu6 Rh8 O24,40,-1.055726969125,['Rh'],['O'],"[8, 9, 10, 11, 12, 13, 14, 15]",perovskite
ICSD-405777.cif,Ta6 F18 O9 Li6,39,-3.173528504294872,['Ta'],"['O', 'F']","[6, 7, 8, 9, 10, 11]",perovskite
ICSD-416605.cif,Ga4 Rb8 K4 F24,40,-2.8109884486250003,"['K', 'Ga']",['F'],"[0, 1, 2, 3, 12, 13, 14, 15]",perovskite
ICSD-259122.cif,Na6 Ti9 Cl24,39,-1.4565476333333331,['Ti'],['Cl'],"[6, 7, 8, 9, 10, 11, 12, 13, 14]",perovskite
ICSD-616936.cif,Bi6 Pb3 Te12,21,-0.2866268444047614,"['Bi', 'Pb']",['Te'],"[0, 1, 2, 3, 4, 5, 12, 13, 14, 15, 16, 17, 18, 19, 20]",perovskite
ICSD-626708.cif,Cr12 Se18,30,-0.2550612363333338,['Cr'],['Se'],"[0, 1, 2, 3, 4, 5, 6, 7, 8, 9, 10, 11]",perovskite
ICSD-263778.cif,Ba8 Ca4 Te4 O24,40,-2.3850788056666667,"['Te', 'Ca']",['O'],"[8, 9, 10, 11, 12, 13, 14, 15]",perovskite
ICSD-626229.cif,La4 Cr4 Se12,20,-1.0861835340000006,['Cr'],['Se'],"[4, 5, 6, 7]",perovskite
ICSD-760220.cif,Cs4 Ge4 Na4 F24,36,-2.737254706111111,"['Na', 'Ge']",['F'],"[4, 5, 6, 7, 8, 9, 10, 11]",perovskite
ICSD-616163.cif,Ba4 Te4,8,-1.7903493383333338,['Ba'],['Te'],"[0, 1, 2, 3, 4, 5, 6, 7]",perovskite
ICSD-633095.cif,Fe6 P6 Se18,30,-0.4906501972857143,['Fe'],['Se'],"[0, 1, 2, 3, 4, 5]",perovskite
ICSD-418474.cif,Tl2 Sc2 S4,8,-1.5255188724999995,['Sc'],['S'],"[0, 1]",perovskite
ICSD-264198.cif,Bi Br Te,3,-0.5100044505555553,['Bi'],"['Br', 'Te']",[0],perovskite
ICSD-651529.cif,Sb6 Se6 Te3,15,-0.1933481766666664,['Te'],['Sb'],"[6, 7, 8]",anti-perovskite
ICSD-651938.cif,Sn4 Tl16 Se12,32,-0.3498010542187502,['Sn'],['Se'],"[16, 17, 18, 19]",perovskite
ICSD-600243.cif,Pb4 S4,8,-0.6807551049999998,['Pb'],['S'],"[0, 1, 2, 3, 4, 5, 6, 7]",perovskite
ICSD-651203.cif,Ti S2,3,-1.4757923255555558,['Ti'],['S'],[0],perovskite
ICSD-261469.cif,Ti4 K8 F20,32,-3.080169875989584,['Ti'],['F'],"[8, 9, 10, 11]",perovskite
ICSD-620234.cif,Cd6 P6 Se18,30,-0.312413291285714,['Cd'],['Se'],"[0, 1, 2, 3, 4, 5]",perovskite
ICSD-254310.cif,Sc4 Co4 O12,20,-2.7028377160000003,['Co'],['O'],"[4, 5, 6, 7]",perovskite
ICSD-253188.cif,Na3 Cr3 O6,12,-1.712967010000001,"['Na', 'Cr']",['O'],"[0, 1, 2, 3, 4, 5]",perovskite
ICSD-428575.cif,Pt3 Na6 F18,27,-2.1611467852777784,"['Na', 'Pt']",['F'],"[0, 1, 2, 3, 4, 5, 6, 7, 8]",perovskite
ICSD-653213.cif,Zr Te2,3,-0.9518745544444442,['Zr'],['Te'],[0],perovskite
ICSD-281038.cif,K4 Sn4 As4 S20,32,-0.6695844695312498,['Sn'],['S'],"[4, 5, 6, 7]",perovskite
ICSD-412328.cif,La3 Sn Ga5 O14,23,-2.3754064209782606,['Sn'],['O'],[8],perovskite
ICSD-413874.cif,Tl8 Ca4 O16,28,-1.3338025257142847,['Tl'],['O'],"[4, 5, 6, 7, 8, 9, 10, 11]",perovskite
ICSD-604993.cif,Cr3 Ag3 Se6,12,-0.0793983600000001,['Cr'],['Se'],"[0, 1, 2]",perovskite
ICSD-280099.cif,Ta8 Na8 O24,40,-2.72082749025,['Ta'],['O'],"[8, 9, 10, 11, 12, 13, 14, 15]",perovskite
ICSD-410392.cif,Ni6 F18 Cs6,30,-2.0928242500833334,['Ni'],['F'],"[6, 7, 8, 9, 10, 11]",perovskite
ICSD-259367.cif,Pd4 Hg2 Se6,12,-0.3491245541666667,"['Pd', 'Hg']",['Se'],"[0, 1, 2]",perovskite
ICSD-412254.cif,O6 H12 N18 Li6,42,-0.5372064294047625,['Li'],"['N', 'O']","[0, 1, 2, 3, 4, 5]",perovskite
ICSD-406722.cif,Ru2 Te4,6,-0.4304639161111107,['Ru'],['Te'],"[4, 5]",perovskite
ICSD-264747.cif,Na8 Nb8 O24,40,-2.5973773892500005,['Nb'],['O'],"[8, 9, 10, 11, 12, 13, 14, 15]",perovskite
ICSD-626718.cif,Cr Se2,3,-0.3129730494444451,['Cr'],['Se'],[0],perovskite
ICSD-425703.cif,Mn8 P4 F8 O12 H4,36,-1.782106157799215,['Mn'],"['O', 'F']","[0, 1, 2, 3, 4, 5, 6, 7]",perovskite
ICSD-652213.cif,Zn4 Se8,12,-0.326327038611111,['Zn'],['Se'],"[0, 1, 2, 3]",perovskite
ICSD-412285.cif,Zr4 Se16 Cl24,44,-0.9647748735606062,['Zr'],['Cl'],"[0, 1, 2, 3]",perovskite
ICSD-256029.cif,Li4 F12 Ti2,18,-3.266965539537037,"['Li', 'Ti']",['F'],"[0, 1, 2, 3, 4, 5]",perovskite
ICSD-254370.cif,Ta6 Ba3 V6 O33,48,-2.8163551167708336,['Ta'],['O'],"[3, 4, 5, 6, 7, 8]",perovskite
ICSD-410934.cif,Mn12 Si4 O16 F8,40,-2.063375704189656,['Mn'],"['O', 'F']","[0, 1, 2, 3, 4, 5, 6, 7, 8, 9, 10, 11]",perovskite
ICSD-609280.cif,Al6 Zn3 S12,21,-1.062945909285714,['Al'],['S'],"[0, 1, 2]",perovskite
ICSD-413082.cif,Ag6 Mo2 Cl F3 O7,19,-1.2937161422368415,['Cl'],['Ag'],[8],anti-perovskite
ICSD-414042.cif,Ru4 Br12,16,-0.49660194875,['Ru'],['Br'],"[0, 1, 2, 3]",perovskite
ICSD-423430.cif,Pb12 B6 O18 F6,42,-1.9251898073214293,['F'],['Pb'],"[40, 41]",anti-perovskite
ICSD-624859.cif,Co8 S8 Sb8,24,-0.7923463533333331,['Co'],['S'],"[0, 1, 2, 3, 4, 5, 6, 7]",perovskite
ICSD-434114.cif,Os6 Sr10 O26,42,-1.9678511183333336,['Os'],['O'],"[10, 11, 12, 13, 14, 15]",perovskite
ICSD-420953.cif,Sc6 Al6 O10 C4,26,-2.303355504038462,['Sc'],"['O', 'C']","[0, 1, 2, 3, 4, 5]",perovskite
ICSD-419683.cif,Sc6 Al6 O6 C6,24,-1.6943006952083337,['Sc'],"['O', 'C']","[0, 1, 2, 3, 4, 5]",perovskite
ICSD-257078.cif,Pb8 Co8 O24,40,-1.29876254275,['Co'],['O'],"[0, 1, 2, 3, 4, 5, 6, 7]",perovskite
ICSD-409840.cif,W4 K8 Cl24,36,-1.3115900119444446,['W'],['Cl'],"[8, 9, 10, 11]",perovskite
ICSD-413464.cif,In2 Ba2 Co8 O14,26,-1.6093648134615388,['In'],['O'],"[2, 3]",perovskite
ICSD-257851.cif,V4 Na8 Ca4 F4 O16,36,-2.672019064305556,['F'],"['Na', 'Ca']","[32, 33, 34, 35]",anti-perovskite
ICSD-650286.cif,Rh8 Se16,24,-0.5328421906944444,['Rh'],['Se'],"[0, 1, 2, 3, 4, 5, 6, 7]",perovskite
ICSD-602266.cif,In2 Se3,5,-0.4805404640000006,['Se'],['In'],[2],anti-perovskite
ICSD-258693.cif,Sr4 Cu2 Te2 O12,20,-1.7983399799166668,['Te'],['O'],"[6, 7]",perovskite
ICSD-416147.cif,Hg4 Cr4 O16,24,-1.2527889212500003,['Hg'],['O'],"[4, 5, 6, 7]",perovskite
ICSD-408193.cif,Ag2 Ba Mn V2 O8,14,-1.9342974295689663,['Mn'],['O'],[1],perovskite
ICSD-652055.cif,Ti12 Se12,24,-0.9498571108333328,['Ti'],['Se'],"[0, 1, 2, 3, 4, 5, 6, 7, 8, 9, 10, 11, 12, 13, 14, 15, 16, 17]",perovskite
ICSD-300207.cif,In4 Sb4 S12,20,-0.5714196999999999,['In'],['S'],"[0, 1, 2, 3]",perovskite
ICSD-409671.cif,Ga4 O8 H4,16,-1.5120880946875,['Ga'],['O'],"[0, 1, 2, 3]",perovskite
ICSD-611203.cif,Pd4 As4 Se4,12,-0.3714311455555552,['Pd'],"['Se', 'As']","[4, 5, 6, 7]",perovskite
ICSD-409632.cif,W4 Rb8 Cl24,36,-1.3369621511111107,['W'],['Cl'],"[8, 9, 10, 11]",perovskite
ICSD-619570.cif,Ca4 Se4,8,-2.029400938333333,['Ca'],['Se'],"[0, 1, 2, 3, 4, 5, 6, 7]",perovskite
ICSD-617052.cif,Bi3 Tl3 S6,12,-0.5542796837500005,"['Bi', 'Tl']",['S'],"[0, 1, 2, 3, 4, 5]",perovskite
ICSD-416170.cif,V4 O20 Na20,44,-1.923865282272727,['O'],['Na'],"[40, 41, 42, 43]",anti-perovskite
ICSD-417150.cif,Ta8 Fe2 S16,26,-1.3017309738461544,['Fe'],['S'],"[8, 9]",perovskite
ICSD-651059.cif,S4 Sr4,8,-2.28796551875,['Sr'],['S'],"[0, 1, 2, 3, 4, 5, 6, 7]",perovskite
ICSD-419862.cif,Mg3 Ba9 Si6 O24,42,-2.9429503101190475,['Mg'],['O'],"[9, 10, 11]",perovskite
ICSD-257251.cif,Li4 Fe4 P4 O16,28,-2.22300989329932,"['Li', 'Fe']",['O'],"[0, 1, 2, 3, 4, 5, 6, 7]",perovskite
ICSD-259381.cif,Ba8 Mg4 Os4 O24,40,-2.1812702987499994,"['Mg', 'Os']",['O'],"[8, 9, 10, 11, 12, 13, 14, 15]",perovskite
ICSD-603572.cif,Ta2 O4,6,-2.6447044633333348,['Ta'],['O'],"[0, 1]",perovskite
ICSD-426821.cif,Li8 B4 F20,32,-2.939346915364584,['Li'],['F'],"[0, 1, 2, 3, 4, 5, 6, 7]",perovskite
ICSD-279639.cif,Sb4 Cl24 N4 C4,36,-0.3500190705555555,['Sb'],"['N', 'Cl']","[0, 1, 2, 3]",perovskite
ICSD-261371.cif,Na4 Ir4 O12,20,-1.1051316720000002,['Ir'],['O'],"[4, 5, 6, 7]",perovskite
ICSD-430096.cif,La8 Bi4 Cu4 S20,36,-1.4967491855555557,['Bi'],['S'],"[12, 13, 14, 15]",perovskite
ICSD-619354.cif,Ca4 Hf4 S12,20,-1.976696742,['Hf'],['S'],"[4, 5, 6, 7]",perovskite
ICSD-280395.cif,Zr2 P4 O14,20,-2.71274939945238,['Zr'],['O'],"[0, 1]",perovskite
ICSD-291488.cif,Ba8 Y4 Os4 O24,40,-2.4515520820000005,"['Y', 'Os']",['O'],"[8, 9, 10, 11, 12, 13, 14, 15]",perovskite
ICSD-416221.cif,La12 N4 S12,28,-2.051341438928571,['S'],['La'],"[16, 17, 18, 19]",anti-perovskite
ICSD-650233.cif,Rh4 Sb4 S4,12,-0.7453965666666663,['Rh'],"['S', 'Sb']","[4, 5, 6, 7]",perovskite
ICSD-604401.cif,Ag3 In3 Se6,12,-0.3424484154166668,"['In', 'Ag']",['Se'],"[0, 1, 2, 3, 4, 5, 6, 7, 8, 9, 10, 11]",perovskite
ICSD-252881.cif,Na Cr Te2,4,-0.1530735533333329,['Cr'],['Te'],[1],perovskite
ICSD-426618.cif,Li4 In2 Mo6 O16,28,-1.9812652847619048,"['In', 'Mo']",['O'],"[4, 5, 6, 7, 8, 9, 10, 11]",perovskite
ICSD-427048.cif,Sb8 Ni6 F12 O12,38,-1.629920508026316,['Ni'],"['O', 'F']","[0, 1, 2, 3, 4, 5]",perovskite
ICSD-638009.cif,Ge12 Te12,24,-0.0757156241666662,['Ge'],['Te'],"[0, 1, 2, 3, 4, 5, 6, 7, 8, 9, 10, 11, 12, 13, 14, 15, 16, 17, 18, 19, 20, 21, 22, 23]",perovskite
ICSD-268018.cif,Rb8 Co4 F24,36,-2.415445687222222,['Co'],['F'],"[8, 9, 10, 11]",perovskite
ICSD-410924.cif,Fe6 Br18,24,-0.6908701608333333,['Fe'],['Br'],"[0, 1, 2, 3, 4, 5]",perovskite
ICSD-416038.cif,Rb3 Na Ru2 O8,14,-1.3398601882142858,['Na'],['O'],[3],perovskite
ICSD-638851.cif,Hf S2,3,-1.829953803333333,['Hf'],['S'],[0],perovskite
ICSD-401590.cif,Zr4 Se16 Cl24,44,-0.9647128633333334,['Zr'],['Cl'],"[0, 1, 2, 3]",perovskite
ICSD-290590.cif,Zn4 Cr8 O16,28,-1.6860960114285717,['Cr'],['O'],"[4, 5, 6, 7, 8, 9, 10, 11]",perovskite
ICSD-600773.cif,Cd2 S2,4,-0.6375040875,['Cd'],['S'],"[0, 1, 2, 3]",perovskite
ICSD-410389.cif,Co9 F27 Cs9,45,-2.42414872475,['Co'],['F'],"[9, 10, 11, 12, 13, 14, 15, 16, 17]",perovskite
ICSD-279600.cif,Pb4 Ga4 O16 B4,28,-1.9123803316071428,['Ga'],['O'],"[0, 1, 2, 3]",perovskite
ICSD-603955.cif,La6 Ni2 Fe2 S14,24,-1.6386638170833323,['Ni'],['S'],"[8, 9]",perovskite
ICSD-300182.cif,K12 Sb4 Te12,28,-0.7914003174999996,['K'],['Te'],"[0, 1, 2, 3]",perovskite
ICSD-416326.cif,Ba4 Sc8 Te16,28,-1.422707069880952,['Sc'],['Te'],"[4, 5, 6, 7, 8, 9, 10, 11]",perovskite
ICSD-608507.cif,Al6 Mn3 S12,21,-1.0222509705665026,['Al'],['S'],"[3, 4, 5]",perovskite
ICSD-281176.cif,Cs2 Cd2 Br6,10,-1.2891533435,['Cd'],['Br'],"[2, 3]",perovskite
ICSD-652075.cif,Se6 Y3 Tl3,12,-1.4058502870833334,"['Y', 'Tl']",['Se'],"[0, 1, 2, 3, 4, 5]",perovskite
ICSD-254956.cif,Mo S2,3,-0.76351538,['Mo'],['S'],[0],perovskite
ICSD-410591.cif,Cs10 Nb4 Cl18 S8,40,-1.6067408269375,['Cs'],['Cl'],"[8, 9, 38, 39]",perovskite
ICSD-433032.cif,Na4 F12 H8,24,-2.060107371041666,['Na'],['F'],"[0, 1, 2, 3]",perovskite
ICSD-619542.cif,Ca8 Si4 S16,28,-1.7093194757142862,['Ca'],['S'],"[0, 1, 2, 3, 4, 5, 6, 7]",perovskite
ICSD-254378.cif,Y10 Mo4 O24,38,-3.1321152273684207,['Y'],['O'],"[8, 9]",perovskite
ICSD-281126.cif,Ba6 Li2 Ru4 O18,30,-1.919066566222223,"['Li', 'Ru']",['O'],"[6, 7, 8, 9, 10, 11]",perovskite
ICSD-281335.cif,P4 F24 O4 H8 Na4,44,-2.260625710205628,"['P', 'Na']","['O', 'F']","[0, 1, 2, 3, 4, 5, 6, 7]",perovskite
ICSD-619557.cif,Ca4 Y8 S16,28,-2.2798809278571426,['Y'],['S'],"[4, 5, 6, 7, 8, 9, 10, 11]",perovskite
ICSD-417711.cif,Sc6 Te3 O18,27,-2.4982096607407405,"['Te', 'Sc']",['O'],"[0, 1, 2, 3, 4, 5, 6, 7, 8]",perovskite
ICSD-280847.cif,Cs4 Se12 Y4 Zn4,24,-1.4379984233333338,['Y'],['Se'],"[4, 5, 6, 7]",perovskite
ICSD-262133.cif,Ba6 N3 F3,12,-1.7080308686458334,['Ba'],"['N', 'F']","[0, 1, 2, 3, 4, 5, 6, 7, 8, 9, 10, 11]",perovskite
ICSD-633323.cif,Fe2 Ta6 S12,20,-1.303287361000001,['Fe'],['S'],"[6, 7]",perovskite
ICSD-653090.cif,Tl20 Te12,32,-0.2758317628124995,['Tl'],['Te'],"[0, 1, 2, 3]",perovskite
ICSD-616134.cif,Ba4 Y8 Se16,28,-2.0004869730952386,['Y'],['Se'],"[4, 5, 6, 7, 8, 9, 10, 11]",perovskite
ICSD-252665.cif,Cd4 Co4 As4 O20 H4,36,-1.3075647522222222,['Co'],['O'],"[4, 5, 6, 7]",perovskite
ICSD-411796.cif,Ag2 Ta2 F12,16,-2.7906731865625,['Ta'],['F'],"[0, 1]",perovskite
ICSD-415874.cif,Au3 K3 F18,24,-1.5078152094791664,['Au'],['F'],"[3, 4, 5]",perovskite
ICSD-603954.cif,La6 Co2 Fe2 S14,24,-1.6839855541666668,['Co'],['S'],"[8, 9]",perovskite
ICSD-419852.cif,Li20 O4 Cl12,36,-1.7211171447685187,['Li'],['Cl'],"[0, 1, 2, 3]",perovskite
ICSD-254299.cif,Ba2 Mg2 O12 F4 Be4 B4,28,-2.938787280892857,['Mg'],['O'],"[2, 3]",perovskite
ICSD-420297.cif,Sr2 As4 O12,18,-1.7828323461111109,['As'],['O'],"[2, 3, 4, 5]",perovskite
ICSD-254992.cif,Ba3 Mg3 O18 C6,30,-2.1627509068333333,['Mg'],['O'],"[3, 4, 5]",perovskite
ICSD-633498.cif,Se16 Ti8 Fe4,28,-1.0719677925000002,"['Ti', 'Fe']",['Se'],"[0, 1, 2, 3, 4, 5, 6, 7, 8, 9, 10, 11]",perovskite
ICSD-608317.cif,La6 Ni2 Al2 S14,24,-1.7666475356250004,['Ni'],['S'],"[8, 9]",perovskite
ICSD-257025.cif,Li4 Cu4 Bi4 O16,28,-1.0102077433333332,['Bi'],['O'],"[8, 9, 10, 11]",perovskite
ICSD-617074.cif,Se9 Bi12,21,-0.2713596238095238,['Bi'],['Se'],"[6, 7, 8, 9, 10, 11, 18, 19, 20]",perovskite
ICSD-252880.cif,Li Cr Te2,4,-0.1895442729166668,"['Li', 'Cr']",['Te'],"[0, 1]",perovskite
ICSD-639178.cif,Ta3 S6 Hg3,12,-0.9227171708333336,['Ta'],['S'],"[0, 1, 2]",perovskite
ICSD-255100.cif,Sc6 K10 F28,44,-3.5068520046590907,['Sc'],['F'],"[10, 11, 12, 13, 14, 15]",perovskite
ICSD-413384.cif,Sr12 Si4 O4,20,-1.32819365,['O'],['Sr'],"[16, 17, 18, 19]",anti-perovskite
ICSD-419506.cif,V6 K10 F28,44,-2.920745296931818,['V'],['F'],"[10, 11, 12, 13, 14, 15]",perovskite
ICSD-414043.cif,Ru2 Br6,8,-0.4730400225000002,['Ru'],['Br'],"[0, 1]",perovskite
ICSD-267980.cif,Bi8 Rb8 Se20 Zn4,40,-0.7835098100833335,['Bi'],['Se'],"[12, 13, 14, 15]",perovskite
ICSD-259387.cif,Ba8 Zn4 Os4 O24,40,-1.8642073557500003,"['Zn', 'Os']",['O'],"[8, 9, 10, 11, 12, 13, 14, 15]",perovskite
ICSD-650457.cif,Rh4 Te8,12,-0.4738140969444438,['Rh'],['Te'],"[8, 9, 10, 11]",perovskite
ICSD-620205.cif,Cd4 O4,8,-1.0261678300000003,['Cd'],['O'],"[0, 1, 2, 3, 4, 5, 6, 7]",perovskite
ICSD-633475.cif,Se8 Fe4,12,-0.7779597944444442,['Fe'],['Se'],"[0, 1, 2, 3]",perovskite
ICSD-281433.cif,Cs4 Y4 Cd4 Se12,24,-1.3814654570833331,['Y'],['Se'],"[4, 5, 6, 7]",perovskite
ICSD-254188.cif,Ba8 Sc4 Ru4 O24,40,-2.440360075,"['Ru', 'Sc']",['O'],"[8, 9, 10, 11, 12, 13, 14, 15]",perovskite
ICSD-253809.cif,Cs2 W6 O18,26,-2.2850589563461536,['W'],['O'],"[2, 3, 4, 5, 6, 7]",perovskite
ICSD-651447.cif,S8 Zn4,12,-0.5462309708333333,['Zn'],['S'],"[0, 1, 2, 3]",perovskite
ICSD-418010.cif,La2 I2 P,5,-1.5795819834523812,['P'],['La'],[2],anti-perovskite
ICSD-602931.cif,Sr4 Te4,8,-1.7455287045833332,['Sr'],['Te'],"[0, 1, 2, 3, 4, 5, 6, 7]",perovskite
ICSD-257373.cif,K6 Si2 F14,22,-3.0664743169318185,"['K', 'Si']",['F'],"[0, 1, 6, 7, 8, 9]",perovskite
ICSD-262319.cif,Ba8 Ca4 Mo4 O24,40,-2.723679008250001,"['Mo', 'Ca']",['O'],"[8, 9, 10, 11, 12, 13, 14, 15]",perovskite
ICSD-653098.cif,Te6 Y3 Tl3,12,-1.0758495854166668,"['Y', 'Tl']",['Te'],"[0, 1, 2, 3, 4, 5]",perovskite
ICSD-409454.cif,Rb12 Fe8 Se16,36,-0.8565150057407406,['Rb'],['Se'],"[0, 1, 2, 3]",perovskite
ICSD-608513.cif,Y6 Mn2 Al2 S14,24,-1.8306327330387933,['Mn'],['S'],"[6, 7]",perovskite
ICSD-403158.cif,Rb8 Bi2 Ag4 Br18,32,-1.2149898915625004,['Bi'],['Br'],"[12, 13]",perovskite
ICSD-407802.cif,Mn3 Ba6 Te3 O18,30,-1.849209675896552,"['Te', 'Mn']",['O'],"[6, 7, 8, 9, 10, 11]",perovskite
ICSD-257115.cif,Cs8 In4 Ag4 Cl24,40,-1.4000408604999997,"['In', 'Ag']",['Cl'],"[8, 9, 10, 11, 12, 13, 14, 15]",perovskite
ICSD-258893.cif,Ca4 Zr4 F24,32,-3.9245232490625,"['Zr', 'Ca']",['F'],"[0, 1, 2, 3, 4, 5, 6, 7]",perovskite
ICSD-605619.cif,Ni3 Ag3 Te6,12,-0.1425752612499996,['Ni'],['Te'],"[0, 1, 2]",perovskite
ICSD-609250.cif,Al12 S18,30,-1.189612306,['Al'],['S'],"[0, 1, 2, 3, 4, 5, 6, 7, 8, 9, 10, 11]",perovskite
ICSD-414041.cif,Ru4 Cl12,16,-0.7159079759375002,['Ru'],['Cl'],"[0, 1, 2, 3]",perovskite
ICSD-616097.cif,Ba2 V2 S6,10,-1.5624317169999995,['V'],['S'],"[2, 3]",perovskite
ICSD-651015.cif,S4 Sn4,8,-0.5414801406250005,['Sn'],['S'],"[0, 1, 2, 3, 4, 5, 6, 7]",perovskite
ICSD-262090.cif,Pb Ti O3,5,-2.3118241788333336,['Ti'],['O'],[0],perovskite
ICSD-254445.cif,Sc4 Ca4 B4 O16,28,-3.126702136428572,['Sc'],['O'],"[4, 5, 6, 7]",perovskite
ICSD-262061.cif,Zr4 W8 O32,44,-2.536150374772727,['Zr'],['O'],"[0, 1, 2, 3]",perovskite
ICSD-257144.cif,Sn12 K8 O28,48,-1.6959888388541664,['Sn'],['O'],"[8, 9, 10, 11, 12, 13, 14, 15, 16, 17, 18, 19]",perovskite
ICSD-409808.cif,Cs8 Mo4 Cl24,36,-1.4103795844444444,['Mo'],['Cl'],"[8, 9, 10, 11]",perovskite
ICSD-417289.cif,Na12 F4 W4 O16,36,-2.285353160416667,['F'],['Na'],"[32, 33, 34, 35]",anti-perovskite
ICSD-427679.cif,Tl20 Br4 Te8,32,-0.4450618351041665,['Tl'],"['Br', 'Te']","[0, 1, 2, 3]",perovskite
ICSD-620305.cif,S8 Cd4,12,-0.5088257200000003,['Cd'],['S'],"[0, 1, 2, 3]",perovskite
ICSD-410783.cif,Sr10 P6 O24 S,41,-2.906159104599304,['S'],['Sr'],[16],anti-perovskite
ICSD-253272.cif,Sr6 Fe4 Te2 O18,30,-2.0457126711111107,"['Te', 'Fe']",['O'],"[6, 8, 10, 11]",perovskite
ICSD-424701.cif,Cs6 Ag2 Mn8 O32,48,-1.459404922640087,['Ag'],['O'],"[14, 15]",perovskite
ICSD-616124.cif,Ba4 Se4,8,-2.0483461170833333,['Ba'],['Se'],"[0, 1, 2, 3, 4, 5, 6, 7]",perovskite
ICSD-638863.cif,Sr4 Hf4 S12,20,-2.0172213080000003,['Hf'],['S'],"[4, 5, 6, 7]",perovskite
ICSD-434755.cif,Li12 P6 S18,36,-1.0253263732936508,['Li'],['S'],"[0, 1, 2, 3, 4, 5, 6, 7, 8, 9, 10, 11]",perovskite
ICSD-710063.cif,K8 Cd12 Se16,36,-0.8475121357407408,['K'],['Se'],"[0, 1, 2, 3]",perovskite
ICSD-620523.cif,Cd4 Te4,8,-0.2748003108333332,['Cd'],['Te'],"[0, 1, 2, 3, 4, 5, 6, 7]",perovskite
ICSD-426706.cif,In12 Na4 S20,36,-0.8383352600000001,['In'],['S'],"[8, 9, 10, 11, 12, 13, 14, 15]",perovskite
ICSD-402399.cif,Li8 Zn4 Cl16,28,-1.5318456898809525,['Li'],['Cl'],"[0, 1, 2, 3, 4, 5, 6, 7]",perovskite
ICSD-410590.cif,Cs10 Nb4 Br18 S8,40,-1.4258415153749997,['Cs'],['Br'],"[8, 9, 38, 39]",perovskite
ICSD-258733.cif,Ba6 Ti4 Mn2 O18,30,-2.7642240411532573,['Mn'],['O'],"[10, 11]",perovskite
ICSD-281247.cif,Ba6 Li2 Os4 O18,30,-1.944027045555556,"['Li', 'Os']",['O'],"[6, 7, 8, 9, 10, 11]",perovskite
ICSD-628782.cif,Cu2 S4,6,-0.2952009341666664,['Cu'],['S'],"[0, 1]",perovskite
ICSD-633869.cif,Te8 Fe4,12,-0.5437214877777775,['Fe'],['Te'],"[0, 1, 2, 3]",perovskite
ICSD-259109.cif,Na2 Nb2 O6,10,-2.5904006820000007,['Nb'],['O'],"[2, 3]",perovskite
ICSD-653072.cif,Ti2 Te2,4,-0.612556749166667,['Ti'],['Te'],"[0, 1]",perovskite
ICSD-416325.cif,Sr4 Sc8 Te16,28,-1.390823458095238,['Sc'],['Te'],"[4, 5, 6, 7, 8, 9, 10, 11]",perovskite
ICSD-430537.cif,Y2 K6 Si4 O14,26,-2.7262550188461536,['Y'],['O'],"[6, 7]",perovskite
ICSD-281039.cif,Sn As2 S6 K2,11,-0.7550017003409092,['Sn'],['S'],[2],perovskite
ICSD-281440.cif,Hg4 Cs4 Y4 Se12,24,-1.2500806666666666,['Y'],['Se'],"[4, 5, 6, 7]",perovskite
ICSD-264199.cif,Bi12 Te6 Br6,24,-0.3590499620833333,['Bi'],"['Br', 'Te']","[0, 1, 2, 3, 4, 5]",perovskite
ICSD-253817.cif,Ba6 Zn2 Ir4 O18,30,-1.7239691820000005,"['Zn', 'Ir']",['O'],"[6, 7, 8, 9, 10, 11]",perovskite
ICSD-262626.cif,Co4 Sb8 O16,28,-1.4187660225,['Co'],['O'],"[0, 1, 2, 3]",perovskite
ICSD-261341.cif,Ca4 Tc4 O12,20,-2.104346054500001,['Tc'],['O'],"[4, 5, 6, 7]",perovskite
ICSD-261909.cif,Co8 As4 O20 H4,36,-1.333798308055556,['Co'],['O'],"[0, 1, 2, 3]",perovskite
ICSD-602041.cif,Fe Ga2 S4,7,-0.9868221989285716,['Fe'],['S'],[2],perovskite
ICSD-257885.cif,La8 Ni6 O20,34,-2.4212537664705884,['Ni'],['O'],"[8, 9, 10, 11, 12, 13]",perovskite
ICSD-606649.cif,Y6 Co2 Al2 S14,24,-1.8289987089583333,['Co'],['S'],"[8, 9]",perovskite
ICSD-632800.cif,Fe2 Nb8 S16,26,-1.3465408576923072,['Fe'],['S'],"[8, 9]",perovskite
ICSD-411721.cif,As4 Na20 O20,44,-1.5826576940909094,['O'],['Na'],"[36, 37, 38, 39]",anti-perovskite
ICSD-264213.cif,Ba12 S28 Zr8,48,-2.0787984729166658,['Zr'],['S'],"[12, 13, 14, 15, 16, 17, 18, 19]",perovskite
ICSD-290252.cif,V2 Li4 F12,18,-2.9444891682407417,"['Li', 'V']",['F'],"[0, 1, 2, 3, 4, 5]",perovskite
ICSD-410802.cif,Tl2 Ti F6,9,-2.7847492321296285,['Ti'],['F'],[0],perovskite