file_name,formula,atom_num,formation_energy,B_element,X_element,sites,perovskite_judge
ICSD-422191.cif,Tc2 O14 Li2 H12,30,-1.3368296975555551,['Li'],['O'],"[0, 1]",perovskite
ICSD-42219.cif,I18 Cd9,27,-0.6013975763888889,['Cd'],['I'],"[0, 1, 2, 3, 4, 5, 6, 7, 8]",perovskite
ICSD-42229.cif,I22 Cd11,33,-0.6014352559848485,['Cd'],['I'],"[0, 1, 2, 3, 4, 5, 6, 7, 8, 9, 10]",perovskite
ICSD-42230.cif,I22 Cd11,33,-0.6013597968939395,['Cd'],['I'],"[0, 1, 2, 3, 4, 5, 6, 7, 8, 9, 10]",perovskite
ICSD-422442.cif,Ag3 Sc3 O6,12,-2.3049699520833333,['Sc'],['O'],"[0, 1, 2]",perovskite
ICSD-42253.cif,I8 Cd4,12,-0.6011662141666667,['Cd'],['I'],"[0, 1, 2, 3]",perovskite
ICSD-42254.cif,I10 Cd5,15,-0.6018574975,['Cd'],['I'],"[0, 1, 2, 3, 4]",perovskite
ICSD-42255.cif,I12 Cd6,18,-0.6016712341666666,['Cd'],['I'],"[0, 1, 2, 3, 4, 5]",perovskite
ICSD-42256.cif,I12 Cd6,18,-0.6014194363888888,['Cd'],['I'],"[0, 1, 2, 3, 4, 5]",perovskite
ICSD-42258.cif,I12 Cd6,18,-0.6012762269444443,['Cd'],['I'],"[0, 1, 2, 3, 4, 5]",perovskite
ICSD-42259.cif,I14 Cd7,21,-0.6015217446428571,['Cd'],['I'],"[0, 1, 2, 3, 4, 5, 6]",perovskite
ICSD-42264.cif,I18 Cd9,27,-0.6013633945370371,['Cd'],['I'],"[0, 1, 2, 3, 4, 5, 6, 7, 8]",perovskite
ICSD-422686.cif,Au4 Ag4 F28,36,-0.9823011295833336,['Au'],['F'],"[4, 5, 6, 7]",perovskite
ICSD-42269.cif,Cd9 I18,27,-0.6015519323148147,['Cd'],['I'],"[0, 1, 2, 3, 4, 5, 6, 7, 8]",perovskite
ICSD-4226.cif,Mg6 B2 O6 F6,20,-3.107405998875,['Mg'],"['O', 'F']","[0, 1, 2, 3, 4, 5]",perovskite
ICSD-422707.cif,Na2 K2 Mo2 O4 F8,18,-2.4692422966666663,"['Na', 'Mo']","['O', 'F']","[2, 3, 4, 5]",perovskite
ICSD-422708.cif,Na2 K2 Nb2 O2 F10,18,-3.0520693820833333,['Na'],"['O', 'F']","[2, 3]",perovskite
ICSD-422709.cif,Na2 K2 W2 O4 F8,18,-2.5536398488888894,['W'],"['O', 'F']","[4, 5]",perovskite
ICSD-42285.cif,I22 Cd11,33,-0.6015127781060606,['Cd'],['I'],"[0, 1, 2, 3, 4, 5, 6, 7, 8, 9, 10]",perovskite
ICSD-42286.cif,I22 Cd11,33,-0.6014082287121213,['Cd'],['I'],"[0, 1, 2, 3, 4, 5, 6, 7, 8, 9, 10]",perovskite
ICSD-42287.cif,I22 Cd11,33,-0.6015832814393941,['Cd'],['I'],"[0, 1, 2, 3, 4, 5, 6, 7, 8, 9, 10]",perovskite
ICSD-422882.cif,Se4 Ga4 O16 H4,28,-1.2221750257738095,['Ga'],['O'],"[0, 1, 2, 3]",perovskite
ICSD-422884.cif,Se8 Ge4 O24,36,-1.0393854653703711,['Ge'],['O'],"[0, 1, 2, 3]",perovskite
ICSD-42303.cif,I14 Cd7,21,-0.6015323970238095,['Cd'],['I'],"[0, 1, 2, 3, 4, 5, 6]",perovskite
ICSD-42305.cif,I22 Cd11,33,-0.6013771720454546,['Cd'],['I'],"[0, 1, 2, 3, 4, 5, 6, 7, 8, 9, 10]",perovskite
ICSD-423278.cif,Rb2 Fe2 P4 O12 H4,24,-1.693165551626984,['Fe'],['O'],"[2, 3]",perovskite
ICSD-423280.cif,V2 P4 O12 N2 H12,32,-1.384972989188988,['V'],['O'],"[0, 1]",perovskite
ICSD-423281.cif,K2 Fe2 P4 H4 O12,24,-1.6958926716269846,['Fe'],['O'],"[2, 3]",perovskite
ICSD-423654.cif,K6 Na2 Os4 O18,30,-1.3929275830000003,['Na'],['O'],"[6, 7]",perovskite
ICSD-423829.cif,Cs2 Ni2 Br6,10,-0.9414416815,['Ni'],['Br'],"[2, 3]",perovskite
ICSD-42392.cif,Cr3 Na3 Se6,12,-0.4490936175000002,['Cr'],['Se'],"[3, 4, 5]",perovskite
ICSD-42396.cif,Cr3 Ag3 S6,12,-0.3761666458333329,['Cr'],['S'],"[0, 1, 2]",perovskite
ICSD-42407.cif,Cr3 K3 S6,12,-0.8138050833333335,['Cr'],['S'],"[3, 4, 5]",perovskite
ICSD-42409.cif,I18 Cd9,27,-0.6014685386111109,['Cd'],['I'],"[0, 1, 2, 3, 4, 5, 6, 7, 8]",perovskite
ICSD-42416.cif,Fe2 S4,6,-1.131296558333333,['Fe'],['S'],"[0, 1]",perovskite
ICSD-42441.cif,K4 Mn4 Br12,20,-1.0727782427931036,['Mn'],['Br'],"[4, 5, 6, 7]",perovskite
ICSD-42443.cif,In4 Zn4 S10,18,-0.7487491005555557,['In'],['S'],"[4, 5]",perovskite
ICSD-424825.cif,Sr4 Sn4 O12,20,-2.2322887172500003,['Sn'],['O'],"[4, 5, 6, 7]",perovskite
ICSD-424895.cif,Ba3 Fe6 P6 O24,39,-2.3963429131684983,['Fe'],['O'],"[3, 4, 5, 6, 7, 8]",perovskite
ICSD-42509.cif,K2 Sb2 F12,16,-2.5777414109375005,['Sb'],['F'],"[2, 3]",perovskite
ICSD-42510.cif,I24 Pb12,36,-0.6909205183333332,['Pb'],['I'],"[0, 1, 2, 3, 4, 5, 6, 7, 8, 9, 10, 11]",perovskite
ICSD-425148.cif,W3 Cl18,21,-0.9160709277380948,['W'],['Cl'],"[0, 1, 2]",perovskite
ICSD-425261.cif,Cs4 Fe8 F24,36,-2.599695828888889,"['Cs', 'Fe']",['F'],"[0, 1, 2, 3, 4, 5, 6, 7, 8, 9, 10, 11]",perovskite
ICSD-425293.cif,Cr2 K2 O4,8,-1.465825261250001,['Cr'],['O'],"[2, 3]",perovskite
ICSD-42537.cif,Fe9 S12,21,-0.920529133095238,['Fe'],['S'],"[0, 1, 2, 3, 4, 5, 6, 7, 8]",perovskite
ICSD-42540.cif,Co2 Se4,6,-0.6208536827777783,['Co'],['Se'],"[0, 1]",perovskite
ICSD-425458.cif,Na12 Sb4 S12,28,-0.9947878282142858,['Na'],['S'],"[8, 9, 10, 11]",perovskite
ICSD-42549.cif,Pt4 Te4 Bi4,12,-0.3808352597222224,['Pt'],"['Bi', 'Te']","[8, 9, 10, 11]",anti-perovskite
ICSD-425587.cif,Ba8 In4 Te4 S10,26,-1.5791653164102568,['S'],['Ba'],"[24, 25]",anti-perovskite
ICSD-425588.cif,Ba8 In4 Te4 Se10,26,-1.4263253785897436,['Se'],['Ba'],"[24, 25]",anti-perovskite
ICSD-425914.cif,Tc K2 F6,9,-2.4340049802777783,['Tc'],['F'],[2],perovskite
ICSD-425915.cif,Tc F6 Na2,9,-2.302949988055556,['Tc'],['F'],[2],perovskite
ICSD-425948.cif,Cs6 I12 La2,20,-1.5827908139999998,['La'],['I'],"[6, 7]",perovskite
ICSD-425966.cif,Mn3 Bi6 Te12,21,-0.1072523527093597,"['Bi', 'Mn']",['Te'],"[0, 1, 2, 3, 4, 5, 6, 7, 8]",perovskite
ICSD-426112.cif,Cs8 La4 Na4 Br24,40,-1.8652392264999995,"['Na', 'La']",['Br'],"[8, 9, 10, 11, 12, 13, 14, 15]",perovskite
ICSD-426115.cif,Cd4 Cl12 O4 H12,32,-0.95214361640625,['Cd'],['Cl'],"[0, 1, 2, 3]",perovskite
ICSD-426425.cif,Sc2 Al2 O2 C2,8,-1.7032533393750002,['Sc'],"['O', 'C']","[0, 1]",perovskite
ICSD-426492.cif,La6 Fe2 In2 S14,24,-1.7770192141666663,['Fe'],['S'],"[8, 9]",perovskite
ICSD-426495.cif,La6 Co2 In2 S14,24,-1.7091673170833337,['Co'],['S'],"[8, 9]",perovskite
ICSD-42650.cif,Nb6 V2 S12,20,-1.3165015625000005,['V'],['S'],"[6, 7]",perovskite
ICSD-42654.cif,Nb8 Mn2 S16,26,-1.32704261530504,['Mn'],['S'],"[0, 1]",perovskite
ICSD-426552.cif,K12 Sb4 S12,28,-1.1110121124999996,['K'],['S'],"[8, 9, 10, 11]",perovskite
ICSD-426554.cif,Rb12 Sb4 S12,28,-1.0952126196428569,['Rb'],['S'],"[8, 9, 10, 11]",perovskite
ICSD-42656.cif,Nb8 Cr2 S16,26,-1.2772015246153852,['Cr'],['S'],"[8, 9]",perovskite
ICSD-42664.cif,Bi24 Se21,45,-0.2969169404444446,['Bi'],['Se'],"[2, 3, 6, 7, 8, 9, 12, 13, 18, 19, 20, 21, 22, 23, 24, 27, 28, 31, 32, 35, 36]",perovskite
ICSD-42666.cif,In6 Zn6 S15,27,-0.7476893529629633,['In'],['S'],"[6, 7, 8]",perovskite
ICSD-426674.cif,La6 Fe2 Ga2 S14,24,-1.8292111182291664,['Fe'],['S'],"[8, 9]",perovskite
ICSD-42668.cif,In4 Zn2 S8,14,-0.7292980300000005,['In'],['S'],"[2, 3]",perovskite
ICSD-42687.cif,Fe2 Nb6 S12,20,-1.3558704759999998,['Fe'],['S'],"[6, 7]",perovskite
ICSD-426.cif,Ca3 As Br3,7,-1.7935379092857142,['Ca'],"['Br', 'As']","[0, 1, 2, 3]",perovskite
ICSD-42708.cif,Pb2 Bi2 Te5,9,-0.2585357809259258,['Bi'],['Te'],"[0, 1, 2]",perovskite
ICSD-42876.cif,Ge2 Te5 Sb2,9,-0.0918036837037029,['Sb'],['Te'],"[2, 3, 4, 7, 8]",perovskite
ICSD-428898.cif,Pb4 I12 N4 C4 H24,48,-0.428838781770833,['Pb'],['I'],"[24, 25, 26, 27]",perovskite
ICSD-42891.cif,Ge Bi4 Te7,12,-0.2111907972222221,"['Bi', 'Ge']",['Te'],"[0, 1, 2, 3, 4, 5, 6, 11]",perovskite
ICSD-43003.cif,Sn2 S4,6,-0.5584892879166669,['Sn'],['S'],"[0, 1]",perovskite
ICSD-43010.cif,Nb4 S2 C2,8,-0.9016484299999998,['C'],['Nb'],"[4, 5]",anti-perovskite
ICSD-43136.cif,Ba Zr O3,5,-3.3544556190000003,['Zr'],['O'],[1],perovskite
ICSD-43266.cif,Ag3 Bi3 Te6,12,-0.1652398666666664,"['Ag', 'Bi']",['Te'],"[0, 1, 2, 3, 4, 5, 6, 7, 8, 9, 10, 11]",perovskite
ICSD-43278.cif,Ag3 Fe3 Te6,12,-0.0101425725,['Fe'],['Te'],"[0, 1]",perovskite
ICSD-432818.cif,Zr4 Mg4 F24,32,-3.7733761575,"['Mg', 'Zr']",['F'],"[0, 1, 2, 3, 4, 5, 6, 7]",perovskite
ICSD-43293.cif,Ni Te2,3,-0.321163814444444,['Ni'],['Te'],[0],perovskite
ICSD-43311.cif,Cr6 B6 O18,30,-2.0005964678333337,['Cr'],['O'],"[0, 1, 2, 3, 4, 5]",perovskite
ICSD-43314.cif,Tl3 Bi3 Se6,12,-0.4521215162499998,"['Bi', 'Tl']",['Se'],"[0, 1, 2, 3, 4, 5]",perovskite
ICSD-433904.cif,Cs4 Sc12 S20,36,-2.0405153897222217,['Sc'],['S'],"[4, 5, 6, 7, 8, 9, 10, 11, 12, 13, 14, 15]",perovskite
ICSD-43408.cif,Na4 Se4,8,-0.8356573608333333,['Na'],['Se'],"[0, 1]",perovskite
ICSD-43413.cif,Ti Te2,3,-0.7022060733333326,['Ti'],['Te'],[0],perovskite
ICSD-434329.cif,Tl Mn F3,5,-1.982550143043104,['Mn'],['F'],[0],perovskite
ICSD-43439.cif,Na3 Ti3 O6,12,-2.472153870416667,"['Ti', 'Na']",['O'],"[0, 1, 2, 3, 4, 5]",perovskite
ICSD-43457.cif,Tl Cu F3,5,-1.6194526967500005,['Cu'],['F'],[1],perovskite
ICSD-43512.cif,Bi6 Se3 Te6,15,-0.305045082,['Bi'],"['Se', 'Te']","[0, 1, 2, 3, 4, 5, 12, 13, 14]",perovskite
ICSD-43593.cif,Sc2 Te2,4,-1.0781850258333332,['Sc'],['Te'],"[0, 1]",perovskite
ICSD-43673.cif,Ti4 S2 C2,8,-1.3385478245833329,['C'],['Ti'],"[4, 5]",anti-perovskite
ICSD-43674.cif,Zr4 S2 C2,8,-1.4124421937500005,['C'],['Zr'],"[4, 5]",anti-perovskite
ICSD-43722.cif,Rb Mn F3,5,-2.4151680210431032,['Mn'],['F'],[1],perovskite
ICSD-43852.cif,Cd I2,3,-0.6009043641666665,['Cd'],['I'],[0],perovskite
ICSD-4403.cif,K12 Mo4 F24,40,-2.4726496335,"['K', 'Mo']",['F'],"[0, 1, 2, 3, 12, 13, 14, 15]",perovskite
ICSD-44340.cif,Ag3 Bi3 S6,12,-0.385239705,"['Ag', 'Bi']",['S'],"[0, 1, 2, 3, 4, 5, 6, 7, 8, 9, 10, 11]",perovskite
ICSD-44398.cif,Co3 Cl6,9,-0.9680566591666668,['Co'],['Cl'],"[0, 1, 2]",perovskite
ICSD-44606.cif,Ni4 Sb4 S4,12,-0.5009106858333331,['Ni'],"['S', 'Sb']","[0, 1, 2, 3]",perovskite
ICSD-44655.cif,In9 Te12,21,-0.2794329033333335,['In'],['Te'],"[0, 1, 2, 15, 16, 17, 18, 19, 20]",perovskite
ICSD-44751.cif,Fe2 Se4,6,-0.7874123311111111,['Fe'],['Se'],"[0, 1]",perovskite
ICSD-44781.cif,Li2 I2,4,-1.2174844435416667,['Li'],['I'],"[0, 1]",perovskite
ICSD-44783.cif,K Mn F3,5,-2.449792154043104,['Mn'],['F'],[1],perovskite
ICSD-44785.cif,K Co F3,5,-2.50719375925,['Co'],['F'],[1],perovskite
ICSD-44786.cif,K Ni F3,5,-2.20889133225,['Ni'],['F'],[1],perovskite
ICSD-44788.cif,K Cd F3,5,-2.43037912525,['Cd'],['F'],[1],perovskite
ICSD-44789.cif,Cs8 Ni4 F24,36,-2.318786257777778,['Ni'],['F'],"[8, 9, 10, 11]",perovskite
ICSD-44792.cif,I8 Cd4,12,-0.6016729691666663,['Cd'],['I'],"[0, 1, 2, 3]",perovskite
ICSD-44793.cif,I10 Cd5,15,-0.6010403001666667,['Cd'],['I'],"[0, 1, 2, 3, 4]",perovskite
ICSD-44795.cif,I12 Cd6,18,-0.6010257619444445,['Cd'],['I'],"[0, 1, 2, 3, 4, 5]",perovskite
ICSD-44796.cif,I12 Cd6,18,-0.6016974080555555,['Cd'],['I'],"[0, 1, 2, 3, 4, 5]",perovskite
ICSD-44908.cif,Li Ti Te2,4,-0.8266386158333328,"['Li', 'Ti']",['Te'],"[0, 1]",perovskite
ICSD-44957.cif,Li3 Y3 S6,12,-2.010720845416667,"['Li', 'Y']",['S'],"[0, 1, 2, 3, 4, 5, 6, 7, 8, 9, 10, 11]",perovskite
ICSD-44963.cif,Li3 Y3 Se6,12,-1.7204448545833333,"['Li', 'Y']",['Se'],"[0, 1, 2, 3, 4, 5, 6, 7, 8, 9, 10, 11]",perovskite
ICSD-44972.cif,Sc4 Se4,8,-1.479384679583334,['Sc'],['Se'],"[0, 1, 2, 3, 4, 5, 6, 7]",perovskite
ICSD-44982.cif,Bi4 Se4,8,-0.165023998333333,['Bi'],['Se'],"[0, 1, 2, 3, 4, 5, 6, 7]",perovskite
ICSD-44984.cif,Bi4 Te4,8,-0.0733951233333329,['Bi'],['Te'],"[0, 1, 2, 3, 4, 5, 6, 7]",perovskite
ICSD-44992.cif,Nb2 S2,4,-1.0831078525000004,['Nb'],['S'],"[0, 1]",perovskite
ICSD-45060.cif,V6 B6 O18,30,-2.2219092081666663,['V'],['O'],"[0, 1, 2, 3, 4, 5]",perovskite
ICSD-45309.cif,Cs Ca F3,5,-3.47485416575,['Ca'],['F'],[1],perovskite
ICSD-45310.cif,Ba Li F3,5,-3.492950326916666,['Li'],['F'],[1],perovskite
ICSD-45317.cif,Ba8 Ca4 Mo4 O24,40,-2.7236671470000005,"['Mo', 'Ca']",['O'],"[8, 9, 10, 11, 12, 13, 14, 15]",perovskite
ICSD-45974.cif,Ir2 Sr4 O8,14,-2.002498362857143,['Ir'],['O'],"[4, 5]",perovskite
ICSD-47121.cif,Ca4 Ta8 O24,36,-3.021230208611112,['Ta'],['O'],"[4, 5, 6, 7, 8, 9, 10, 11]",perovskite
ICSD-47174.cif,Br4 Na4 O12,20,-0.6019478855000002,['Na'],['O'],"[0, 1, 2, 3]",perovskite
ICSD-47201.cif,Mn4 Cs8 F24,36,-2.531958130996169,['Mn'],['F'],"[8, 9, 10, 11]",perovskite
ICSD-47213.cif,Mn4 K8 F24,36,-2.5076580240517248,['Mn'],['F'],"[8, 9, 10, 11]",perovskite
ICSD-47243.cif,K4 Hf2 F12,18,-3.462559306944444,['Hf'],['F'],"[4, 5]",perovskite
ICSD-47244.cif,K8 Hf4 F24,36,-3.4228380933333336,['Hf'],['F'],"[8, 9, 10, 11]",perovskite
ICSD-48007.cif,Ru2 O4 Li2,8,-1.4280889658333331,"['Li', 'Ru']",['O'],"[0, 1, 2, 3]",perovskite
ICSD-48107.cif,O18 Co6 Ti6,30,-2.447187279,['Co'],['O'],"[6, 7, 8, 9, 10, 11]",perovskite
ICSD-4849.cif,Ca4 Ti4 F24,32,-3.667855848020833,"['Ti', 'Ca']",['F'],"[0, 1, 2, 3, 4, 5, 6, 7]",perovskite
ICSD-4850.cif,Ca3 Ti3 F18,24,-3.659410336145832,"['Ti', 'Ca']",['F'],"[0, 1, 2, 3, 4, 5]",perovskite
ICSD-494.cif,Mg4 Se4 O12,20,-1.633016124833334,['Mg'],['O'],"[0, 1, 2, 3]",perovskite
ICSD-49520.cif,Te2 Rb4 Br12,18,-1.0706196279629632,['Te'],['Br'],"[4, 5]",perovskite
ICSD-49521.cif,Te4 Rb8 Br24,36,-1.0689148771296295,['Te'],['Br'],"[8, 9, 10, 11]",perovskite
ICSD-49573.cif,I22 Cd11,33,-0.6013704878030304,['Cd'],['I'],"[0, 1, 2, 3, 4, 5, 6, 7, 8, 9, 10]",perovskite
ICSD-49578.cif,Cs Sr F3,5,-3.42679747575,['Sr'],['F'],[1],perovskite
ICSD-49582.cif,Cs Cd F3,5,-2.4573164967500003,['Cd'],['F'],[1],perovskite
ICSD-49583.cif,Cs Fe F3,5,-2.55854911675,['Fe'],['F'],[1],perovskite
ICSD-49584.cif,Cs Mg F3,5,-3.18131855375,['Mg'],['F'],[1],perovskite
ICSD-49585.cif,Rb Mg F3,5,-3.2607107292500004,['Mg'],['F'],[1],perovskite
ICSD-49586.cif,Rb Fe F3,5,-2.6412776262499995,['Fe'],['F'],[1],perovskite
ICSD-49587.cif,Rb Cd F3,5,-2.44706002425,['Cd'],['F'],[1],perovskite
ICSD-49591.cif,Rb Pb F3,5,-2.49617535875,['Pb'],['F'],[1],perovskite
ICSD-49650.cif,K3 Y3 O6,12,-2.796028281666667,['Y'],['O'],"[3, 4, 5]",perovskite
ICSD-49651.cif,Rb3 Y3 O6,12,-2.726391465416667,['Y'],['O'],"[3, 4, 5]",perovskite
ICSD-49912.cif,Fe4 Ga4 S10,18,-1.0163487791666663,['Fe'],['S'],"[4, 5, 6, 7]",perovskite
ICSD-50005.cif,Mg2 Bi4 O12,18,-1.2687211627777784,"['Bi', 'Mg']",['O'],"[0, 1, 2, 3, 4, 5]",perovskite
ICSD-50040.cif,Ba2 Bi Sb O6,10,-2.0356472090000004,"['Bi', 'Sb']",['O'],"[2, 3]",perovskite
ICSD-500.cif,Co4 Te4 O12,20,-1.193922344333334,['Co'],['O'],"[0, 1, 2, 3]",perovskite
ICSD-50183.cif,Ba Ag2 S2,5,-1.003928507,['Ba'],['S'],[0],perovskite
ICSD-50491.cif,Se12 Na12 As4,28,-0.8089539210714288,['Na'],['Se'],"[4, 5, 6, 7]",perovskite
ICSD-50492.cif,Se12 K12 As4,28,-0.9297128310714292,['K'],['Se'],"[4, 5, 6, 7]",perovskite
ICSD-50504.cif,Cs10 In2 Se24 P8,44,-0.6926609771158012,['In'],['Se'],"[10, 11]",perovskite
ICSD-5071.cif,Ni2 Se4,6,-0.3682523444444445,['Ni'],['Se'],"[0, 1]",perovskite
ICSD-50817.cif,Mn Se2 Li,4,-0.5713312089080462,['Li'],['Se'],[0],perovskite
ICSD-50827.cif,Ba6 Ru4 In2 O18,30,-1.9019626060000008,"['In', 'Ru']",['O'],"[6, 7, 8, 9, 10, 11]",perovskite
ICSD-50829.cif,Ba6 Ru4 Co2 O18,30,-1.905014989000001,"['Ru', 'Co']",['O'],"[6, 7, 8, 9, 10, 11]",perovskite
ICSD-50832.cif,Ba6 Ru4 Ni2 O18,30,-1.7405688686666674,"['Ru', 'Ni']",['O'],"[6, 7, 8, 9, 10, 11]",perovskite
ICSD-50843.cif,Sr8 F4 N8 B4,24,-1.835511361875,['Sr'],"['N', 'F']","[0, 1, 2, 3]",perovskite
ICSD-5084.cif,Ca3 Zn3 C6 O18,30,-1.8507934026666684,"['Zn', 'Ca']",['O'],"[0, 1, 2, 3, 4, 5]",perovskite
ICSD-50987.cif,Pd4 Te4 I4,12,-0.3743172076388888,['Pd'],"['I', 'Te']","[4, 5, 6, 7]",perovskite
ICSD-51015.cif,Co Re2 O8,11,-1.5958304059090913,['Co'],['O'],[0],perovskite
ICSD-51017.cif,Zn Re2 O8,11,-1.5944967945454558,['Zn'],['O'],[0],perovskite
ICSD-51036.cif,La6 Ga6 O18,30,-2.619495276083334,['Ga'],['O'],"[6, 7, 8, 9, 10, 11]",perovskite
ICSD-51123.cif,La4 Cr4 S12,20,-1.4287528210000005,['Cr'],['S'],"[4, 5, 6, 7]",perovskite
ICSD-51168.cif,Rb4 Cd2 Cl8,14,-1.6026322528571428,['Cd'],['Cl'],"[4, 5]",perovskite
ICSD-51201.cif,Li4 Ni4 As4 O16,28,-1.4470055561904758,['Li'],['O'],"[0, 1, 2, 3]",perovskite
ICSD-51202.cif,Ca4 Nb4 O12,20,-2.8704608565000007,['Nb'],['O'],"[4, 5, 6, 7]",perovskite
ICSD-51207.cif,Li3 Fe3 O6,12,-1.9080433387500004,"['Li', 'Fe']",['O'],"[0, 1, 2, 3, 4, 5, 6, 7, 8, 9, 10, 11]",perovskite
ICSD-51217.cif,Mn4 Sr6 O14,24,-2.264376053994253,['Mn'],['O'],"[6, 7, 8, 9]",perovskite
ICSD-51262.cif,Cu Cl Ca2 Nb3 O10,17,-2.5418844552205893,['Nb'],['O'],[2],perovskite
ICSD-51264.cif,K12 W4 F24,40,-2.335158336,"['K', 'W']",['F'],"[0, 1, 2, 3, 12, 13, 14, 15]",perovskite
ICSD-51285.cif,La4 Ga4 O12,20,-2.6229283647500004,['Ga'],['O'],"[4, 5, 6, 7]",perovskite
ICSD-51613.cif,Ba8 Mn4 W4 O24,40,-2.4645699218965507,"['Mn', 'W']",['O'],"[8, 9, 10, 11, 12, 13, 14, 15]",perovskite
ICSD-51659.cif,Ba Pb O3,5,-0.6018101905000002,['Ba'],['O'],[0],perovskite
ICSD-51704.cif,Cr12 B4 O24,40,-1.9102956827499995,['Cr'],['O'],"[0, 1, 2, 3, 4, 5, 6, 7, 8, 9, 10, 11]",perovskite
ICSD-51856.cif,Se4 Zn4 O12,20,-1.031258529833334,['Zn'],['O'],"[0, 1, 2, 3]",perovskite
ICSD-51895.cif,Sr2 Cu6 Ru8 O24,40,-1.1675267143750006,['Ru'],['O'],"[8, 9, 10, 11, 12, 13, 14, 15]",perovskite
ICSD-51926.cif,Ba6 La2 Ru4 O18,30,-2.174778228666668,"['Ru', 'La']",['O'],"[6, 7, 8, 9, 10, 11]",perovskite
ICSD-52115.cif,Ta S2,3,-1.2405717766666673,['Ta'],['S'],[0],perovskite
ICSD-52117.cif,Ta6 S12,18,-1.2500256422222231,['Ta'],['S'],"[3, 4, 5]",perovskite
ICSD-52161.cif,Ti6 F18,24,-3.328295888229165,['Ti'],['F'],"[0, 1, 2, 3, 4, 5]",perovskite
ICSD-52238.cif,Na4 F4,8,-2.731586169375,['Na'],['F'],"[0, 1, 2, 3, 4, 5, 6, 7]",perovskite
ICSD-52243.cif,K4 Br4,8,-1.774918475,['K'],['Br'],"[0, 1, 2, 3, 4, 5, 6, 7]",perovskite
ICSD-52274.cif,Cs4 Cl4,8,-1.975869590625,['Cs'],['Cl'],"[0, 1, 2, 3, 4, 5, 6, 7]",perovskite
ICSD-52280.cif,Ca I2,3,-1.6625521158333332,['Ca'],['I'],[0],perovskite
ICSD-52364.cif,Co Br2,3,-0.7273914683333335,['Co'],['Br'],[0],perovskite
ICSD-52366.cif,Mg Br2,3,-1.51732783,['Mg'],['Br'],[0],perovskite
ICSD-52367.cif,Cd3 Br6,9,-0.8853852394444444,['Cd'],['Br'],"[0, 1, 2]",perovskite
ICSD-52368.cif,Co I2,3,-0.4598812741666667,['Co'],['I'],[0],perovskite
ICSD-52369.cif,Fe I2,3,-0.7052761541666666,['Fe'],['I'],[0],perovskite
ICSD-52535.cif,K4 C2 O6,12,-1.7818707291666671,['K'],['O'],"[0, 1]",perovskite
ICSD-52735.cif,Bi3 Rb3 S6,12,-0.9140311945833334,"['Bi', 'Rb']",['S'],"[0, 1, 2, 3, 4, 5]",perovskite
ICSD-53059.cif,Co2 O2,4,-1.4302047349999998,['Co'],['O'],"[0, 1, 2, 3]",perovskite
ICSD-53067.cif,Co4 S8,12,-0.8457978983333335,['Co'],['S'],"[0, 1, 2, 3]",perovskite
ICSD-53191.cif,Cr2 Nb8 Se16,26,-0.6228941398717948,['Nb'],['Se'],"[0, 1, 2, 3, 4, 5, 6, 7]",perovskite
ICSD-53267.cif,Ba4 Nb10 Na2 O30,46,-2.86279094,['Nb'],['O'],"[6, 7, 8, 9, 10, 11, 12, 13, 14, 15]",perovskite
ICSD-53526.cif,Fe2 S2,4,-1.1236561075000004,['Fe'],['S'],"[0, 1]",perovskite
ICSD-53528.cif,Fe2 S2,4,-1.1236711799999997,['Fe'],['S'],"[0, 1]",perovskite
ICSD-53634.cif,Bi6 I18,24,-0.5030680478124999,['Bi'],['I'],"[0, 1, 2, 3, 4, 5]",perovskite
ICSD-53824.cif,K4 F4,8,-2.729183996875,['K'],['F'],"[0, 1, 2, 3, 4, 5, 6, 7]",perovskite
ICSD-53827.cif,K4 I4,8,-1.515024663125,['K'],['I'],"[0, 1, 2, 3, 4, 5, 6, 7]",perovskite
ICSD-53829.cif,Rb4 Cl4,8,-1.951555665625,['Rb'],['Cl'],"[0, 1, 2, 3, 4, 5, 6, 7]",perovskite
ICSD-53832.cif,Cs4 F4,8,-2.652068109375,['Cs'],['F'],"[0, 1, 2, 3, 4, 5, 6, 7]",perovskite
ICSD-53839.cif,Li4 F4,8,-2.9716734997916663,['Li'],['F'],"[0, 1, 2, 3, 4, 5, 6, 7]",perovskite
ICSD-53845.cif,Rb4 Br4,8,-1.7758648474999998,['Rb'],['Br'],"[0, 1, 2, 3, 4, 5, 6, 7]",perovskite
ICSD-53906.cif,Ge4 Se4,8,-0.2161471558333341,['Ge'],['Se'],"[0, 1, 2, 3, 4, 5, 6, 7]",perovskite
ICSD-53930.cif,Ni4 O4,8,-0.7793598975,['Ni'],['O'],"[0, 1, 2, 3, 4, 5, 6, 7]",perovskite
ICSD-53938.cif,Co4 As4 S4,12,-0.873095556666667,['Co'],['S'],"[0, 1, 2, 3]",perovskite
ICSD-53941.cif,Sr4 S4,8,-2.2879802487500003,['Sr'],['S'],"[0, 1, 2, 3, 4, 5, 6, 7]",perovskite
ICSD-53946.cif,Mg4 Se4,8,-1.2425937658333337,['Mg'],['Se'],"[0, 1, 2, 3, 4, 5, 6, 7]",perovskite
ICSD-54119.cif,Rb Al F4,6,-3.35493015125,['Al'],['F'],[1],perovskite
ICSD-54122.cif,Rb4 Al4 F16,24,-3.355442887083333,['Al'],['F'],"[4, 5, 6, 7]",perovskite
ICSD-54137.cif,In4 Zr2 Br12,18,-1.1595737927777776,['Zr'],['Br'],"[0, 1]",perovskite
ICSD-54138.cif,In4 Ca4 Br12,20,-1.5201559095,['Ca'],['Br'],"[0, 1, 2, 3]",perovskite
ICSD-54140.cif,Mn6 P6 Se18,30,-0.2336817544121516,['Mn'],['Se'],"[0, 1, 2, 3, 4, 5]",perovskite
ICSD-5419.cif,In6 Se9,15,-0.0203387766666665,['Se'],"['In', 'Se']","[6, 7, 8, 9, 10, 11, 12, 13, 14]",anti-perovskite
ICSD-54838.cif,Bi6 Se6 Te3,15,-0.3125204206666666,['Te'],['Bi'],"[6, 7, 8]",anti-perovskite