file_name,formula,atom_num,formation_energy,B_element,X_element,sites,perovskite_judge
ICSD-89640.cif,O16 Ba4 Y8,28,-3.3131147749999994,['Y'],['O'],"[4, 5, 6, 7, 8, 9, 10, 11]",perovskite
ICSD-89695.cif,Cs3 Sb2 I9,14,-0.9333874761607142,['Sb'],['I'],"[3, 4]",perovskite
ICSD-89995.cif,Ba6 Mn6 O18,30,-2.1783089567931047,['Mn'],['O'],"[6, 7, 8, 9, 10, 11]",perovskite
ICSD-9011.cif,Ca4 Sn2 O8,14,-2.501400710535715,['Sn'],['O'],"[4, 5]",perovskite
ICSD-90135.cif,Hf4 V8 O28,40,-2.79492412425,['Hf'],['O'],"[0, 1, 2, 3]",perovskite
ICSD-9022.cif,Rb8 Sn4 Cl24,36,-1.4862132773611108,['Sn'],['Cl'],"[8, 9, 10, 11]",perovskite
ICSD-9025.cif,I16 Cd8,24,-0.6012748079166667,['Cd'],['I'],"[0, 1, 2, 3, 4, 5, 6, 7]",perovskite
ICSD-90335.cif,Ba4 Y8 Te16,28,-1.5655077295238098,['Y'],['Te'],"[4, 5, 6, 7, 8, 9, 10, 11]",perovskite
ICSD-90615.cif,Na4 P4 F24,32,-2.7207648390327384,"['P', 'Na']",['F'],"[0, 1, 2, 3, 4, 5, 6, 7]",perovskite
ICSD-90842.cif,Ba6 Te2 Bi4 O18,30,-1.9301154237777784,['Te'],['O'],"[10, 11]",perovskite
ICSD-90847.cif,Sr12 Sn8 O28,48,-2.32841565625,['Sn'],['O'],"[12, 13, 14, 15, 16, 17, 18, 19]",perovskite
ICSD-91037.cif,Cs8 Mn4 K4 F24,40,-2.6372921213965514,"['K', 'Mn']",['F'],"[8, 9, 10, 11, 12, 13, 14, 15]",perovskite
ICSD-91087.cif,Cd2 Cl2 O2 H2,8,-1.1043880371875003,['Cl'],"['H', 'Cd']","[4, 5]",anti-perovskite
ICSD-91233.cif,Ca Al12 Si4 O27,44,-2.9561799925000005,['Si'],['O'],"[13, 14, 37]",perovskite
ICSD-91298.cif,Bi10 Rb6 Cu4 S20,40,-0.7508383714999993,['Bi'],['S'],"[18, 19]",perovskite
ICSD-91299.cif,Bi10 Cs6 Cu4 S20,40,-0.7531471003749999,['Bi'],['S'],"[18, 19]",perovskite
ICSD-9136.cif,Mn2 Na4 Cl8,14,-1.4163030027093595,['Mn'],['Cl'],"[4, 5]",perovskite
ICSD-9167.cif,Co2 F4,6,-2.238657374166667,['Co'],['F'],"[0, 1]",perovskite
ICSD-91746.cif,Ru4 La12 O28,44,-2.611699493863637,['Ru'],['O'],"[12, 13, 14, 15]",perovskite
ICSD-91748.cif,Mg8 Nb4 O18,30,-2.814091908666668,['Mg'],['O'],"[0, 1, 2, 3]",perovskite
ICSD-91791.cif,Sr4 Ni2 W2 O12,20,-2.3186875115,"['Ni', 'W']",['O'],"[4, 5, 6, 7]",perovskite
ICSD-91835.cif,Rb6 Zn6 F18,30,-2.535560073583333,['Zn'],['F'],"[6, 7, 8, 9, 10, 11]",perovskite
ICSD-91856.cif,Cu3 In3 O6,12,-1.184660762708333,['In'],['O'],"[0, 1, 2]",perovskite
ICSD-9192.cif,Cd8 I16,24,-0.6016698141666664,['Cd'],['I'],"[0, 1, 2, 3, 4, 5, 6, 7]",perovskite
ICSD-92356.cif,Fe18 O24,42,-1.7411457714285714,['Fe'],['O'],"[6, 7, 8, 9, 10, 11, 12, 13, 14, 15, 16, 17]",perovskite
ICSD-92458.cif,Cu4 Y4 S8,16,-1.571561595625,['Y'],['S'],"[0, 1, 2, 3]",perovskite
ICSD-92464.cif,Sn3 Na6 O18 H18,45,-1.3323432221388891,"['Na', 'Sn']",['O'],"[0, 1, 2, 3, 4, 5, 6, 7, 8]",perovskite
ICSD-92465.cif,Sn3 K6 O18 H18,45,-1.3639539243611118,['Sn'],['O'],"[6, 7, 8]",perovskite
ICSD-92478.cif,Rb8 Pd4 I24,36,-0.7782130349999998,['Pd'],['I'],"[8, 9, 10, 11]",perovskite
ICSD-9253.cif,K4 Hf2 Si6 O18,30,-2.8912613633333337,['Hf'],['O'],"[4, 5]",perovskite
ICSD-9294.cif,Sr4 Ni2 W2 O12,20,-2.4425472495,['W'],['O'],"[6, 7]",perovskite
ICSD-93099.cif,La4 Pd4 O12,20,-1.9226976095000008,['Pd'],['O'],"[4, 5, 6, 7]",perovskite
ICSD-93133.cif,Cs4 Zr2 Si6 O18,30,-2.877076397000001,['Zr'],['O'],"[4, 5]",perovskite
ICSD-93213.cif,Fe4 Te2 O12,18,-1.4098679646296293,"['Te', 'Fe']",['O'],"[0, 1, 2, 3, 4, 5]",perovskite
ICSD-93369.cif,K6 Bi10 Cu4 S20,40,-0.7562263092500003,"['Bi', 'K']",['S'],"[4, 5, 18, 19]",perovskite
ICSD-93389.cif,Na4 Al4 B4 O14,26,-2.592906187692308,['Na'],['O'],"[0, 1]",perovskite
ICSD-93438.cif,Cs6 Pb6 F18,30,-2.5408414939166666,['Pb'],['F'],"[6, 7, 8, 9, 10, 11]",perovskite
ICSD-9347.cif,Rb8 Mn4 Cl24,36,-1.245511925162835,['Mn'],['Cl'],"[8, 9, 10, 11]",perovskite
ICSD-93507.cif,Tl4 Ni4 O12,20,-0.7648113015000001,['Ni'],['O'],"[4, 5, 6, 7]",perovskite
ICSD-93580.cif,Co4 Fe4 P4 O20,32,-2.0017584330952385,['Co'],['O'],"[4, 5, 6, 7]",perovskite
ICSD-93581.cif,Ni4 Fe4 P4 O20,32,-1.786144504657738,['Fe'],['O'],"[0, 1, 2, 3]",perovskite
ICSD-9358.cif,K4 In4 Mo8 O32,48,-2.0072567041666667,['In'],['O'],"[4, 5, 6, 7]",perovskite
ICSD-93597.cif,Pb2 V12 O22,36,-2.2486555323611097,['V'],['O'],"[6, 7, 8, 9]",perovskite
ICSD-935.cif,Te36 Li12,48,-0.3850403354166669,['Li'],['Te'],"[0, 1, 2, 3, 4, 5, 6, 7, 8, 9, 10, 11, 12, 13, 14, 15, 16, 17]",perovskite
ICSD-9363.cif,Rb4 In4 Mo8 O32,48,-2.0134172027083337,['In'],['O'],"[4, 5, 6, 7]",perovskite
ICSD-93657.cif,Ba10 Co10 Cl2 O26,48,-2.132435277552084,['Co'],['O'],"[18, 19]",perovskite
ICSD-93674.cif,Rb Sr2 Nb3 O10,16,-2.8841488028125006,['Nb'],['O'],[3],perovskite
ICSD-93675.cif,Cs Sr2 Nb3 O10,16,-2.89016823484375,['Nb'],['O'],[3],perovskite
ICSD-93676.cif,Cs Ba2 Nb3 O10,16,-2.85847386109375,['Nb'],['O'],[3],perovskite
ICSD-93680.cif,Cs4 La8 Cu4 Se16,32,-1.560144839895833,['La'],['Se'],"[4, 5, 6, 7, 8, 9, 10, 11]",perovskite
ICSD-93723.cif,Na8 Mg4 In4 F28,44,-2.9243330810227275,"['In', 'Mg']",['F'],"[8, 9, 10, 11, 12, 13, 14, 15]",perovskite
ICSD-93768.cif,Nb4 P4 O20,28,-2.5787272556802727,['Nb'],['O'],"[0, 1, 2, 3]",perovskite
ICSD-9382.cif,Cs8 Na4 Bi4 F24,40,-2.68244540975,"['Bi', 'Na']",['F'],"[8, 9, 10, 11, 12, 13, 14, 15]",perovskite
ICSD-93835.cif,Tl4 Fe4 O12,20,-1.0935897690000005,['Fe'],['O'],"[4, 5, 6, 7]",perovskite
ICSD-9383.cif,Cs8 K4 Bi4 F24,40,-2.68759379975,"['Bi', 'K']",['F'],"[8, 9, 10, 11, 12, 13, 14, 15]",perovskite
ICSD-9384.cif,Cs8 Rb4 Bi4 F24,40,-2.6630578607500004,"['Bi', 'Rb']",['F'],"[8, 9, 10, 11, 12, 13, 14, 15]",perovskite
ICSD-9385.cif,Cs8 Tl4 Bi4 F24,40,-2.465756441,"['Bi', 'Tl']",['F'],"[8, 9, 10, 11, 12, 13, 14, 15]",perovskite
ICSD-9386.cif,Rb8 Na4 Bi4 F24,40,-2.6624267495000007,"['Bi', 'Na']",['F'],"[8, 9, 10, 11, 12, 13, 14, 15]",perovskite
ICSD-9387.cif,Rb8 K4 Bi4 F24,40,-2.64588570025,"['Bi', 'K']",['F'],"[0, 1, 2, 3, 12, 13, 14, 15]",perovskite
ICSD-93898.cif,Ni4 P4 S4,12,-0.5164942190873015,['Ni'],"['P', 'S']","[0, 1, 2, 3]",perovskite
ICSD-93901.cif,Ni4 As4 Se4,12,-0.3665862705555559,['Ni'],"['Se', 'As']","[0, 1, 2, 3]",perovskite
ICSD-93902.cif,Ni4 Sb4 Se4,12,-0.3873102255555552,['Ni'],"['Se', 'Sb']","[0, 1, 2, 3]",perovskite
ICSD-93905.cif,Pd4 Sb4 Se4,12,-0.4408097930555558,['Pd'],"['Se', 'Sb']","[4, 5, 6, 7]",perovskite
ICSD-93906.cif,Pd4 Sb4 Te4,12,-0.393732469722222,['Pd'],"['Te', 'Sb']","[8, 9, 10, 11]",perovskite
ICSD-93911.cif,Fe4 Sb8 S16,28,-0.6229675853571425,['Fe'],['S'],"[0, 1, 2, 3]",perovskite
ICSD-94079.cif,Sr4 Fe2 Mo2 O12,20,-2.5159564725,"['Mo', 'Fe']",['O'],"[4, 5, 6, 7]",perovskite
ICSD-9423.cif,Cr2 O4,6,-1.7562509983333343,['Cr'],['O'],"[0, 1]",perovskite
ICSD-94277.cif,Mg2 F4,6,-3.5570646841666664,['Mg'],['F'],"[0, 1]",perovskite
ICSD-94283.cif,Mg4 F8,12,-3.4889771525,['Mg'],['F'],"[0, 1, 2, 3]",perovskite
ICSD-9428.cif,La6 Cu6 O18,30,-1.9246098485000005,['Cu'],['O'],"[6, 7, 8, 9, 10, 11]",perovskite
ICSD-94401.cif,Mg2 Na8 S12 C12 N12,46,-0.4128764673913046,"['Na', 'Mg']","['N', 'S']","[0, 1, 8, 9]",perovskite
ICSD-94455.cif,Hf4 V4 F24,32,-3.1956379646875,"['Hf', 'V']",['F'],"[0, 1, 2, 3, 4, 5, 6, 7]",perovskite
ICSD-94456.cif,Zr4 Ti4 F24,32,-3.402998992083333,"['Ti', 'Zr']",['F'],"[0, 1, 2, 3, 4, 5, 6, 7]",perovskite
ICSD-9456.cif,Ba4 Cu8 O8,20,-1.3872109084999995,['Ba'],['O'],"[0, 1, 2, 3]",perovskite
ICSD-94746.cif,Sr8 Mn6 O16 Cl4,34,-2.2029652326115627,['Mn'],['O'],"[12, 13]",perovskite
ICSD-95059.cif,Sr4 La2 Ta6 O22,34,-3.1475042950000005,['Ta'],['O'],"[10, 11]",perovskite
ICSD-95087.cif,Na4 Mn4 As4 O16,28,-1.42638035270936,"['Na', 'Mn']",['O'],"[0, 1, 2, 3, 4, 5, 6, 7]",perovskite
ICSD-95110.cif,Nb6 S6 C3,15,-1.0474272243333331,['C'],['Nb'],"[6, 7, 8]",anti-perovskite
ICSD-95113.cif,Nb2 S2 C,5,-1.0472351349999998,['C'],['Nb'],[2],anti-perovskite
ICSD-95497.cif,Ba3 Mg Nb2 O9,15,-2.973537641666667,"['Nb', 'Mg']",['O'],"[3, 4, 5]",perovskite
ICSD-95579.cif,Y4 V4 O12,20,-2.947711115,['V'],['O'],"[4, 5, 6, 7]",perovskite
ICSD-95715.cif,Ca2 Cu6 Ru8 O24,40,-1.1704339498750005,['Ru'],['O'],"[8, 9, 10, 11, 12, 13, 14, 15]",perovskite
ICSD-95716.cif,Na2 Cu6 Ru8 O24,40,-1.0204238093750009,['Ru'],['O'],"[8, 9, 10, 11, 12, 13, 14, 15]",perovskite
ICSD-9588.cif,Cs6 Si2 F14,22,-3.0662414257954542,"['Si', 'Cs']",['F'],"[0, 1, 6, 7, 8, 9]",perovskite
ICSD-9589.cif,Rb6 Si2 F14,22,-3.059266010568181,"['Rb', 'Si']",['F'],"[0, 1, 6, 7, 8, 9]",perovskite
ICSD-9594.cif,Cs6 Ti2 F14,22,-3.1783184036742425,"['Ti', 'Cs']",['F'],"[0, 1, 6, 7, 8, 9]",perovskite
ICSD-9595.cif,Rb6 Ti2 F14,22,-3.1621125275378787,"['Rb', 'Ti']",['F'],"[0, 1, 6, 7, 8, 9]",perovskite
ICSD-95984.cif,Ba4 La8 In8 O28,48,-2.4884230227083326,['In'],['O'],"[12, 13, 14, 15, 16, 17, 18, 19]",perovskite
ICSD-9600.cif,Cs6 Ni2 F14,22,-2.372133323977273,"['Cs', 'Ni']",['F'],"[0, 1, 6, 7, 8, 9]",perovskite
ICSD-9601.cif,Rb6 Ni2 F14,22,-2.364006686022728,"['Rb', 'Ni']",['F'],"[0, 1, 6, 7, 8, 9]",perovskite
ICSD-96419.cif,W6 Rb2 O18,26,-2.2747518050000006,['W'],['O'],"[2, 3, 4, 5, 6, 7]",perovskite
ICSD-96420.cif,W6 Rb2 O18,26,-2.2747241453846168,['W'],['O'],"[2, 3, 4, 5, 6, 7]",perovskite
ICSD-96428.cif,Na3 Co3 O6,12,-1.9095942466666669,"['Na', 'Co']",['O'],"[0, 1, 2, 3, 4, 5]",perovskite
ICSD-9646.cif,Ti12 O18,30,-2.924946041,['Ti'],['O'],"[0, 1, 2, 3, 4, 5, 6, 7, 8, 9, 10, 11]",perovskite
ICSD-96485.cif,Li4 C2 O6,12,-1.8586506886111107,['Li'],['O'],"[0, 1, 2, 3]",perovskite
ICSD-96500.cif,Pb4 Te4,8,-0.4125984408333334,['Pb'],"['Pb', 'Te']","[0, 1, 2, 3, 4, 5, 6, 7]",perovskite
ICSD-96612.cif,Zn2 Sb4 O12,18,-1.4277618938888892,"['Zn', 'Sb']",['O'],"[0, 1, 2, 3, 4, 5]",perovskite
ICSD-9679.cif,K8 Mn4 Cl24,36,-1.227635726551724,['Mn'],['Cl'],"[8, 9, 10, 11]",perovskite
ICSD-97028.cif,Ba8 Co4 Mo4 O24,40,-2.343169065250001,"['Mo', 'Co']",['O'],"[8, 9, 10, 11, 12, 13, 14, 15]",perovskite
ICSD-9702.cif,Cs8 Co4 F24,36,-2.4336832486111115,['Co'],['F'],"[8, 9, 10, 11]",perovskite
ICSD-9705.cif,Cs8 K4 Cr4 F24,40,-2.651121051750001,"['K', 'Cr']",['F'],"[8, 9, 10, 11, 12, 13, 14, 15]",perovskite
ICSD-9706.cif,Rb8 Na4 Cr4 F24,40,-2.645651399000001,"['Na', 'Cr']",['F'],"[8, 9, 10, 11, 12, 13, 14, 15]",perovskite
ICSD-9707.cif,Rb8 K4 Cr4 F24,40,-2.63357756175,"['K', 'Cr']",['F'],"[0, 1, 2, 3, 12, 13, 14, 15]",perovskite
ICSD-97091.cif,Ca8 Os8 O28,44,-1.824386098636364,"['Os', 'Ca']",['O'],"[0, 1, 2, 3, 8, 9, 10, 11, 12, 13, 14, 15]",perovskite
ICSD-9723.cif,Cd2 S2 O8,12,-1.4027949183333337,['Cd'],['O'],[0],perovskite
ICSD-97368.cif,O12 Ru4 Sr4,20,-1.857841373,['Ru'],['O'],"[4, 5, 6, 7]",perovskite
ICSD-97423.cif,Bi4 Ta4 O16,24,-2.293940556666667,['Ta'],['O'],"[0, 1, 2, 3]",perovskite
ICSD-97426.cif,Cs8 Bi8 Zn4 S20,40,-0.9358137305,['Bi'],['S'],"[16, 17, 18, 19]",perovskite
ICSD-97428.cif,Cs8 Bi8 Mn4 S20,40,-0.8477757753965519,['Bi'],['S'],"[16, 17, 18, 19]",perovskite
ICSD-97460.cif,Ba Zr O3,5,-3.3544556250000013,['Zr'],['O'],[1],perovskite
ICSD-97464.cif,Ca4 Zr4 O12,20,-3.3884699439999992,['Zr'],['O'],"[4, 5, 6, 7]",perovskite
ICSD-97514.cif,Ca Cu4 Re3 Sr8 O24,40,-2.0251375272500005,"['Cu', 'Re', 'Ca']",['O'],"[8, 9, 10, 11, 12, 13, 14, 15]",perovskite
ICSD-9753.cif,Pb12 O16,28,-1.0627950560714283,['Pb'],['O'],"[0, 1, 2, 3]",perovskite
ICSD-97557.cif,K4 Y8 Cu4 S16,32,-1.8361631971875,['Y'],['S'],"[4, 5, 6, 7, 8, 9, 10, 11]",perovskite
ICSD-97665.cif,Pb4 Fe4 B4 O16,28,-1.8531279475,['Fe'],['O'],"[0, 1, 2, 3]",perovskite
ICSD-97666.cif,Pb4 Cr4 B4 O16,28,-1.8554179178571428,['Cr'],['O'],"[0, 1, 2, 3]",perovskite
ICSD-97758.cif,Li3 Cr3 O6,12,-1.9165596979166668,"['Li', 'Cr']",['O'],"[0, 1, 2, 3, 4, 5, 6, 7, 8, 9, 10, 11]",perovskite
ICSD-97763.cif,Li4 Mn4 P4 O16,28,-2.060305604937251,"['Li', 'Mn']",['O'],"[0, 1, 2, 3, 4, 5, 6, 7]",perovskite
ICSD-97766.cif,Li4 Fe4 P4 O16,28,-2.2226650954421774,['Fe'],['O'],"[4, 5, 6, 7]",perovskite
ICSD-97767.cif,Li4 Ni4 P4 O16,28,-1.966629351870749,['Ni'],['O'],"[4, 5, 6, 7]",perovskite
ICSD-98168.cif,La4 Ga4 O12,20,-2.62295799875,['Ga'],['O'],"[4, 5, 6, 7]",perovskite
ICSD-98192.cif,Ba8 Ni4 Mo4 O24,40,-2.1779704227500005,"['Mo', 'Ni']",['O'],"[8, 9, 10, 11, 12, 13, 14, 15]",perovskite
ICSD-98476.cif,Na4 Cu4 Hf8 Se20,36,-1.2142162953703703,['Hf'],['Se'],"[4, 5, 6, 7, 8, 9, 10, 11]",perovskite
ICSD-98524.cif,Ba8 Mg4 Re4 O24,40,-2.4384257420000006,"['Mg', 'Re']",['O'],"[8, 9, 10, 11, 12, 13, 14, 15]",perovskite
ICSD-98563.cif,Zn8 Nb4 O18,30,-2.0205225990000013,['Zn'],['O'],"[4, 5, 6, 7]",perovskite
ICSD-98654.cif,K3 La3 Te6,12,-1.459913947916667,"['K', 'La']",['Te'],"[0, 1, 2, 3, 4, 5, 6, 7, 8, 9, 10, 11]",perovskite
ICSD-98739.cif,Ba8 Mn4 Mo4 O24,40,-2.3828244833965533,"['Mo', 'Mn']",['O'],"[8, 9, 10, 11, 12, 13, 14, 15]",perovskite
ICSD-9886.cif,Br4 Sb4 F32,40,-1.7341603572500002,['Sb'],['F'],"[0, 1, 2, 3]",perovskite
ICSD-98978.cif,Na4 Sb4 O12,20,-1.5632555924999998,['Sb'],['O'],"[4, 5, 6, 7]",perovskite
ICSD-99061.cif,Ba8 W4 Fe4 O24,40,-2.5583629922500006,"['Fe', 'W']",['O'],"[8, 9, 10, 11, 12, 13, 14, 15]",perovskite
ICSD-99063.cif,Ba8 Fe4 Mo4 O24,40,-2.46183964975,"['Mo', 'Fe']",['O'],"[8, 9, 10, 11, 12, 13, 14, 15]",perovskite
ICSD-9911.cif,Ca3 Ti3 F18,24,-3.6676179244791656,"['Ti', 'Ca']",['F'],"[0, 1, 2, 3, 4, 5]",perovskite
ICSD-99127.cif,Tl4 Te2 Br12,18,-0.6339194985185183,['Te'],['Br'],"[4, 5]",perovskite
ICSD-99460.cif,Ba3 Ti3 B2 O12,20,-2.9565938760000003,['Ti'],['O'],"[3, 4, 5]",perovskite
ICSD-99503.cif,Ca2 O12 B4 Li8,26,-2.4866582591025645,['Ca'],['O'],"[8, 9]",perovskite
ICSD-99594.cif,Sb4 Mn4 V4 O24,36,-1.8146880604406133,"['Sb', 'Mn']",['O'],"[0, 1, 2, 3, 8, 9, 10, 11]",perovskite
ICSD-99681.cif,Ba6 Ru3 Cl2 O12,23,-2.0493353820652183,['Ru'],['O'],"[6, 7, 8]",perovskite
ICSD-99682.cif,Ba9 Ru9 O27,45,-1.876147089555556,['Ru'],['O'],"[9, 10, 11, 12, 13, 14, 15, 16, 17]",perovskite
ICSD-99714.cif,Mo2 O4,6,-1.9251300450000008,['Mo'],['O'],"[0, 1]",perovskite
ICSD-605002.cif,Cr3 Ag3 Te6,12,0.191585306666667,['Cr'],['Te'],"[0, 1, 2]",perovskite
ICSD-626809.cif,Cr6 Si6 Te18,30,0.0010274269999996,['Cr'],['Te'],"[0, 1, 2, 3, 4, 5]",perovskite
ICSD-105543.cif,Pt4 O4,8,0.3886030887500001,['Pt'],['O'],"[0, 1, 2, 3, 4, 5, 6, 7]",perovskite
ICSD-110436.cif,Pt2 Cl12 N4 C8 H8,34,0.0534929974999994,['Pt'],['Cl'],"[8, 9]",anti-perovskite
ICSD-12075.cif,S2 N4,6,1.4768948033333331,['S'],['N'],"[0, 1]",anti-perovskite
ICSD-152837.cif,Tl Cr Te2,4,0.0586216529166665,['Cr'],['Te'],[1],perovskite
ICSD-28431.cif,S2 H6,8,0.6336819506250002,['H'],"['S', 'H']","[0, 1, 2, 3, 4, 5, 6, 7]",perovskite
ICSD-28644.cif,Rb Hg N3 O6,11,0.4073226820454536,['Hg'],['N'],[1],perovskite
ICSD-28646.cif,Tl Hg N3 O6,11,0.5554526102272722,['Hg'],['N'],[1],perovskite
ICSD-28647.cif,K Cd N3 O6,11,0.4643399965909083,['Cd'],['N'],[1],perovskite
ICSD-28648.cif,Rb Cd N3 O6,11,0.4571107852272725,['Cd'],['N'],[1],perovskite
ICSD-28649.cif,Cs Cd N3 O6,11,0.4334470859090903,['Cd'],['N'],[1],perovskite
ICSD-28650.cif,Tl Cd N3 O6,11,0.6208041015909086,['Cd'],['N'],[1],perovskite
ICSD-33664.cif,Na2 I2 O6,10,0.1440782782499994,['Na'],['O'],"[0, 1]",perovskite
ICSD-33665.cif,Cs I O3,5,0.99644139175,['Cs'],['O'],[0],perovskite
ICSD-41940.cif,Cr8 Te12,20,0.1424830155000002,['Cr'],['Te'],"[2, 3]",perovskite
ICSD-44071.cif,Te4 As4,8,0.0927794179166667,['Te'],['As'],"[0, 1, 2, 3, 4, 5, 6, 7]",perovskite
ICSD-63670.cif,Br4 H4,8,0.8648324112500001,['H'],['Br'],"[0, 1, 2, 3, 4, 5, 6, 7]",perovskite
ICSD-76240.cif,Mn4 Te4,8,0.2808198071839079,['Mn'],['Te'],"[0, 1, 2, 3, 4, 5, 6, 7]",perovskite
ICSD-7745.cif,Bi6 Te9,15,0.0102574026666668,['Bi'],"['Bi', 'Te']","[0, 1, 2, 3, 4, 5, 6, 7, 8, 9, 10, 11, 12, 13, 14]",perovskite
ICSD-79268.cif,Te18 Cr6 Ge6,30,0.0305427016666669,['Cr'],['Te'],"[0, 1, 2, 3, 4, 5]",perovskite