file_name,formula,atom_num,formation_energy,B_element,X_element,sites,perovskite_judge
ICSD-134490.cif,Ba2 V2 S6,10,-1.5699326929999995,['V'],['S'],"[2, 3]",perovskite
ICSD-134883.cif,La2 Cu6 Fe4 Os4 O24,40,-1.3888082446249996,"['Fe', 'Os']",['O'],"[2, 3, 4, 5, 12, 13, 14, 15]",perovskite
ICSD-135047.cif,Mg4 Al8 O16,28,-2.9231227775,['Al'],['O'],"[4, 5, 6, 7]",perovskite
ICSD-135049.cif,Mg4 Al8 O16,28,-2.8918998421428577,['Al'],['O'],"[4, 5, 6, 7, 8, 9, 10, 11]",perovskite
ICSD-135225.cif,Nb6 Cl12 O6 H12 I2,38,-1.1733186787499998,['I'],['H'],"[18, 19]",anti-perovskite
ICSD-13543.cif,Sr10 Te2 B8 O28,48,-2.5749312898611105,['Te'],['O'],"[18, 19]",perovskite
ICSD-13613.cif,K4 Co6 V4 C2 O22,38,-1.947587206052632,['Co'],['O'],"[8, 9, 10, 11]",perovskite
ICSD-136189.cif,Pb K2 F6,9,-2.409778755555555,['Pb'],['F'],[2],perovskite
ICSD-136193.cif,F12 Na4 Pb2,18,-2.385589406111112,"['Pb', 'Na']",['F'],"[0, 1, 2, 3, 4, 5]",perovskite
ICSD-136194.cif,Pb Rb2 F6,9,-2.4226364688888893,['Pb'],['F'],[2],perovskite
ICSD-136197.cif,F12 Ti2 Li4,18,-3.2671170595370365,"['Li', 'Ti']",['F'],"[0, 1, 2, 3, 4, 5]",perovskite
ICSD-136198.cif,Cd4 Zr4 F24,32,-3.2428552490625004,"['Cd', 'Zr']",['F'],"[0, 1, 2, 3, 4, 5, 6, 7]",perovskite
ICSD-136199.cif,Sn4 Sr4 F24,32,-3.08587779421875,"['Sn', 'Sr']",['F'],"[0, 1, 2, 3, 4, 5, 6, 7]",perovskite
ICSD-136202.cif,Ca4 Sn4 F24,32,-3.07646883203125,"['Sn', 'Ca']",['F'],"[0, 1, 2, 3, 4, 5, 6, 7]",perovskite
ICSD-136203.cif,Ca3 Ge3 F18,24,-3.0464309915625,"['Ge', 'Ca']",['F'],"[0, 1, 2, 3, 4, 5]",perovskite
ICSD-136204.cif,Pb4 Ca4 F24,32,-2.702873396875,"['Pb', 'Ca']",['F'],"[0, 1, 2, 3, 4, 5, 6, 7]",perovskite
ICSD-136205.cif,Pb3 Ba3 F18,24,-2.7024207472916664,['Pb'],['F'],"[3, 4, 5]",perovskite
ICSD-136207.cif,Zr4 Zn4 F24,32,-3.2794413678125003,"['Zn', 'Zr']",['F'],"[0, 1, 2, 3, 4, 5, 6, 7]",perovskite
ICSD-136208.cif,Zr4 Ca4 F24,32,-3.924353031875,"['Zr', 'Ca']",['F'],"[0, 1, 2, 3, 4, 5, 6, 7]",perovskite
ICSD-136209.cif,Hf4 Ca4 F24,32,-3.95342317375,"['Hf', 'Ca']",['F'],"[0, 1, 2, 3, 4, 5, 6, 7]",perovskite
ICSD-136271.cif,Na24 S4 O4 I8,40,-1.2378192809999995,"['S', 'O']",['Na'],"[24, 25, 26, 27, 36, 37, 38, 39]",anti-perovskite
ICSD-136303.cif,Rb8 Si4 F24,36,-3.1502418805555554,['Si'],['F'],"[8, 9, 10, 11]",perovskite
ICSD-136304.cif,F14 Tl6 Si2,22,-2.472493532386363,"['Si', 'Tl']",['F'],"[4, 5, 6, 7, 20, 21]",perovskite
ICSD-13945.cif,Mn4 Nb8 O24,36,-2.4776739159961667,['Mn'],['O'],"[0, 1, 2, 3]",perovskite
ICSD-13948.cif,Mn4 V8 O24,36,-2.1759098232183898,['Mn'],['O'],"[0, 1, 2, 3]",perovskite
ICSD-140315.cif,Mn2 Te2 O12 Na4,20,-1.4945642640632186,"['Te', 'Mn']",['O'],"[4, 5, 6, 7]",perovskite
ICSD-14077.cif,Mn2 Rb2 Br6,10,-1.1773591457931034,['Mn'],['Br'],"[2, 3]",perovskite
ICSD-140990.cif,La4 Ni4 O28 B12,48,-2.489856979375,['Ni'],['O'],"[4, 5, 6, 7]",perovskite
ICSD-141221.cif,Cs6 Cl26 In4 Cu8,44,-1.2095280774431814,['In'],['Cl'],"[6, 7, 8, 9]",perovskite
ICSD-141255.cif,Pb8 Fe4 Te4 O24,40,-1.1894639664166669,"['Te', 'Fe']",['O'],"[0, 1, 2, 3, 4, 5, 6, 7]",perovskite
ICSD-14125.cif,Hg6 I3 Na3 O6,18,-0.7227086256250002,['I'],['Hg'],"[9, 10, 11]",anti-perovskite
ICSD-141578.cif,K2 Ge F6,9,-2.747786085833334,['Ge'],['F'],[2],perovskite
ICSD-141594.cif,Cs Cd2 Nb3 O10,16,-2.21291536734375,['Nb'],['O'],[1],perovskite
ICSD-141708.cif,Mn3 O18 Sn3 Te3,27,-1.3110919725239472,"['Sn', 'Te', 'Mn']",['O'],"[0, 1, 2, 3, 4, 5, 6, 7, 8]",perovskite
ICSD-141713.cif,Sr6 Ti4 O10 F8,28,-3.414267586309524,['Ti'],"['O', 'F']","[6, 7, 8, 9]",perovskite
ICSD-14175.cif,Ti2 Ba2 S6,10,-1.8221517923333328,['Ti'],['S'],"[2, 3]",perovskite
ICSD-141794.cif,Ca4 Cr4 O12,20,-2.3566652250000004,['Cr'],['O'],"[4, 5, 6, 7]",perovskite
ICSD-14208.cif,Ni3 Cl6,9,-0.4964441708333334,['Ni'],['Cl'],"[0, 1, 2]",perovskite
ICSD-14220.cif,Ca2 Br4,6,-2.0554163616666665,['Ca'],['Br'],"[0, 1]",perovskite
ICSD-142291.cif,Nb4 Na4 O12,20,-2.5935046255000005,['Nb'],['O'],"[4, 5, 6, 7]",perovskite
ICSD-142807.cif,K12 Ga4 F24,40,-2.791860700625,"['K', 'Ga']",['F'],"[8, 9, 10, 11, 12, 13, 14, 15]",perovskite
ICSD-142817.cif,Pb8 Sn4 O16,28,-1.3967182608928574,['Sn'],['O'],"[0, 1, 2, 3]",perovskite
ICSD-142824.cif,Pb8 Sn4 O16,28,-1.3898267555357149,['Sn'],['O'],"[0, 1, 2, 3]",perovskite
ICSD-142825.cif,Pb8 Sn4 O16,28,-1.3354731923214287,['Sn'],['O'],"[0, 1, 2, 3]",perovskite
ICSD-142860.cif,Ga6 B6 O18,30,-2.1198770629166668,['Ga'],['O'],"[0, 1, 2, 3, 4, 5]",perovskite
ICSD-142964.cif,Sb8 Fe6 F12 O12,38,-1.936335774078948,['Fe'],"['O', 'F']","[0, 1, 2, 3, 4, 5]",perovskite
ICSD-143192.cif,Ba8 Ir4 Ni4 O24,40,-1.5517780442499998,"['Ir', 'Ni']",['O'],"[8, 9, 10, 11, 12, 13, 14, 15]",perovskite
ICSD-143413.cif,Rb12 Sc4 F24,40,-3.27753009175,"['Rb', 'Sc']",['F'],"[0, 1, 2, 3, 12, 13, 14, 15]",perovskite
ICSD-143434.cif,Cs2 Br6 Mn2,10,-1.2129221212931036,['Mn'],['Br'],"[2, 3]",perovskite
ICSD-143475.cif,Bi3 K3 S6,12,-0.9400047100000002,"['Bi', 'K']",['S'],"[0, 1, 2, 3, 4, 5]",perovskite
ICSD-143476.cif,K12 Bi4 S12,28,-1.0832334485714286,['K'],['S'],"[8, 9, 10, 11]",perovskite
ICSD-143477.cif,Bi3 K3 Se6,12,-0.8047650708333336,"['Bi', 'K']",['Se'],"[0, 1, 2, 3, 4, 5]",perovskite
ICSD-143620.cif,Pb4 Cs4 Cl12,20,-1.54281398475,['Pb'],['Cl'],"[4, 5, 6, 7]",perovskite
ICSD-143627.cif,In4 S4 F12 O16 Rb8,44,-2.1842933939772724,['In'],"['O', 'F']","[8, 9, 10, 11]",perovskite
ICSD-143768.cif,Cs8 Ru4 Br24,36,-1.0113379536111111,['Ru'],['Br'],"[8, 9, 10, 11]",perovskite
ICSD-143770.cif,Ru4 Br24 K8,36,-0.9528210049999998,['Ru'],['Br'],"[8, 9, 10, 11]",perovskite
ICSD-143771.cif,Cs8 Ru4 Cl24,36,-1.2463772852777777,['Ru'],['Cl'],"[8, 9, 10, 11]",perovskite
ICSD-143773.cif,Ru4 Rb8 Cl24,36,-1.2173926936111108,['Ru'],['Cl'],"[8, 9, 10, 11]",perovskite
ICSD-143783.cif,H2 Na6 S2 O8,18,-1.515980523055556,['Na'],"['O', 'H']","[0, 1, 2, 3]",perovskite
ICSD-143881.cif,Sn Cs Br3,5,-1.25092838925,['Sn'],['Br'],[1],perovskite
ICSD-1449.cif,Ba12 Si4 O20,36,-2.8651829955555552,['O'],['Ba'],"[16, 17, 18, 19]",anti-perovskite
ICSD-14611.cif,Cs Pb Br3,5,-1.3210375979999995,['Pb'],['Br'],[1],perovskite
ICSD-14613.cif,Cs4 Pb4 Br12,20,-1.3373587684999997,['Pb'],['Br'],"[4, 5, 6, 7]",perovskite
ICSD-14679.cif,Ba8 Ni4 W4 O24,40,-2.2697854307500003,"['Ni', 'W']",['O'],"[8, 9, 10, 11, 12, 13, 14, 15]",perovskite
ICSD-14739.cif,Sr4 Sc8 O16,28,-3.354609115,['Sc'],['O'],"[4, 5, 6, 7, 8, 9, 10, 11]",perovskite
ICSD-14741.cif,Sr4 Y8 O16,28,-3.372459818928572,['Y'],['O'],"[4, 5, 6, 7, 8, 9, 10, 11]",perovskite
ICSD-14744.cif,Sr Ge O3,5,-2.189634994000001,['Ge'],['O'],[1],perovskite
ICSD-14806.cif,Ga3 V12 S24,39,-1.0873100774679487,['V'],['S'],"[0, 1, 2]",perovskite
ICSD-15011.cif,Rb2 Ni2 Br6,10,-0.915483898,['Ni'],['Br'],"[2, 3]",perovskite
ICSD-150383.cif,Sn4 Sr8 O16,28,-2.4016674483928573,['Sn'],['O'],"[8, 9, 10, 11]",perovskite
ICSD-150388.cif,Sn2 Sr4 O8,14,-2.388231490535715,['Sn'],['O'],"[4, 5]",perovskite
ICSD-150431.cif,Ba3 Co Nb2 O9,15,-2.749239488,"['Nb', 'Co']",['O'],"[3, 4, 5]",perovskite
ICSD-150674.cif,Cr Li S2,4,-0.8656622370833333,"['Li', 'Cr']",['S'],"[0, 1]",perovskite
ICSD-150698.cif,Pb8 Zr8 O24,40,-2.5717597210000007,['Zr'],['O'],"[0, 1, 2, 3, 4, 5, 6, 7]",perovskite
ICSD-150701.cif,Sr4 Fe2 Mo2 O12,20,-2.5169828335000006,"['Mo', 'Fe']",['O'],"[4, 5, 6, 7]",perovskite
ICSD-150792.cif,Ba Nb O3,5,-2.8810553320000003,['Nb'],['O'],[1],perovskite
ICSD-15106.cif,Mg3 Pb3 F18,24,-2.53322778125,"['Pb', 'Mg']",['F'],"[0, 1, 2, 3, 4, 5]",perovskite
ICSD-15107.cif,Zn3 Pb3 F18,24,-2.0614042391666665,"['Pb', 'Zn']",['F'],"[0, 1, 2, 3, 4, 5]",perovskite
ICSD-15108.cif,Ni3 Pb3 F18,24,-1.9346034970833328,"['Pb', 'Ni']",['F'],"[0, 1, 2, 3, 4, 5]",perovskite
ICSD-15119.cif,Li3 Bi3 F18,24,-2.1863879176041667,"['Li', 'Bi']",['F'],"[0, 1, 2, 3, 4, 5]",perovskite
ICSD-15120.cif,Na3 Bi3 F18,24,-2.1703362336458336,"['Bi', 'Na']",['F'],"[0, 1, 2, 3, 4, 5]",perovskite
ICSD-15121.cif,Rb3 Bi3 F18,24,-2.2163855538541664,['Bi'],['F'],"[3, 4, 5]",perovskite
ICSD-15122.cif,Cs3 Bi3 F18,24,-2.236737677083333,['Bi'],['F'],"[3, 4, 5]",perovskite
ICSD-151251.cif,Ca4 O16 C8 H8,36,-1.4952159894444448,['Ca'],['O'],"[0, 1, 2, 3]",perovskite
ICSD-151400.cif,Fe2 Cl6,8,-0.9417172146875,['Fe'],['Cl'],"[0, 1]",perovskite
ICSD-151411.cif,Cd4 V4 Na4 O16,28,-2.0025584435714285,['Cd'],['O'],"[8, 9, 10, 11]",perovskite
ICSD-151442.cif,Ba6 Co2 Sb4 O18,30,-2.073737796000001,"['Sb', 'Co']",['O'],"[6, 7, 8, 9, 10, 11]",perovskite
ICSD-151457.cif,Al2 V4 O8,14,-2.3849297475000006,['V'],['O'],"[2, 3, 4, 5]",perovskite
ICSD-151471.cif,Ru8 Sr12 O28,48,-2.0297579025,['Ru'],['O'],"[12, 13, 14, 15, 16, 17, 18, 19]",perovskite
ICSD-151595.cif,Ca4 Sn4 O12,20,-2.25951087225,['Sn'],['O'],"[4, 5, 6, 7]",perovskite
ICSD-15168.cif,Cs Hg F3,5,-1.99547803775,['Hg'],['F'],[1],perovskite
ICSD-15169.cif,Rb Hg F3,5,-1.9699982992500005,['Hg'],['F'],[1],perovskite
ICSD-15170.cif,K4 Hg4 F12,20,-1.94336255525,['Hg'],['F'],"[4, 5, 6, 7]",perovskite
ICSD-15173.cif,Pt8 I32,40,-0.18787659,['Pt'],['I'],"[0, 1, 2, 3, 4, 5, 6, 7]",perovskite
ICSD-15174.cif,Ba Ca Fe4 O8,14,-1.902658928928572,['Ca'],['O'],[1],perovskite
ICSD-151779.cif,La6 Mn3 Mg3 O18,30,-2.714926285563219,"['Mg', 'Mn']",['O'],"[6, 7, 8, 9, 10, 11]",perovskite
ICSD-151891.cif,Rb8 Cd2 Cl12,22,-1.7420874393181818,['Cd'],['Cl'],"[8, 9]",perovskite
ICSD-151929.cif,Cu2 Sc2 O4,8,-2.421152835625,['Sc'],['O'],"[0, 1]",perovskite
ICSD-151992.cif,I4 Se8 Tl20,32,-0.4539060768229168,['Tl'],"['Se', 'I']","[0, 1, 2, 3]",perovskite
ICSD-152188.cif,Te9 Sb24,33,-0.0549269975757577,['Sb'],['Te'],"[0, 1, 2, 3, 4, 5, 24, 25, 26]",perovskite
ICSD-152279.cif,Sr2 Co12 O22,36,-1.8266864983333333,['Co'],['O'],"[2, 3, 4, 5, 6, 7, 8, 9, 10, 11]",perovskite
ICSD-152283.cif,Ca2 Cu6 Sb4 Cr4 O24,40,-1.420943736625,"['Sb', 'Cr']",['O'],"[2, 3, 4, 5, 12, 13, 14, 15]",perovskite
ICSD-152300.cif,Li2 Ga2 Ca2 F12,18,-3.1755557771759264,"['Li', 'Ga', 'Ca']",['F'],"[0, 1, 2, 3, 4, 5]",perovskite
ICSD-152380.cif,Fe2 C12 O12 B4 F16,46,-1.6488247460869574,['Fe'],['C'],"[0, 1]",perovskite
ICSD-152441.cif,Sr4 Ni2 Os2 O12,20,-1.858383946000001,['Os'],['O'],"[6, 7]",perovskite
ICSD-15246.cif,Co K F3,5,-2.50719358125,['Co'],['F'],[1],perovskite
ICSD-152555.cif,Y4 Cu4 Pb4 S12,24,-1.281550319583334,['Y'],['S'],"[0, 1, 2, 3]",perovskite
ICSD-152574.cif,Sr4 Mg2 W2 O12,20,-2.8065262785,"['Mg', 'W']",['O'],"[4, 5, 6, 7]",perovskite
ICSD-152575.cif,Sr8 Mg4 W4 O24,40,-2.79867732875,"['Mg', 'W']",['O'],"[8, 9, 10, 11, 12, 13, 14, 15]",perovskite
ICSD-15260.cif,Ba6 Ru3 In3 O18,30,-1.8655836015,"['In', 'Ru']",['O'],"[6, 7, 8, 9, 10, 11]",perovskite
ICSD-152758.cif,Al2 I6 O18,26,-0.8426870056730777,['Al'],['O'],"[0, 1]",perovskite
ICSD-15279.cif,Rb6 Mg6 Cl18,30,-1.9220543810833333,['Mg'],['Cl'],"[6, 7, 8, 9, 10, 11]",perovskite
ICSD-1528.cif,Re K2 F6,9,-2.361334145833333,['Re'],['F'],[2],perovskite
ICSD-15298.cif,Sc Cu S2,4,-1.4658168993749996,['Sc'],['S'],[0],perovskite
ICSD-15306.cif,O12 Ta4 Cr2,18,-2.6234511800000004,"['Ta', 'Cr']",['O'],"[0, 1, 2, 3, 4, 5]",perovskite
ICSD-153105.cif,Ca6 N3 Br3,12,-1.417693399791667,['N'],['Ca'],"[9, 10, 11]",anti-perovskite
ICSD-153120.cif,Ba2 Bi Ta O6,10,-2.570937355500001,"['Ta', 'Bi']",['O'],"[2, 3]",perovskite
ICSD-153136.cif,Ba2 La Sb O6,10,-2.5745466675000004,"['Sb', 'La']",['O'],"[2, 3]",perovskite
ICSD-153173.cif,Ca4 Ti4 O12,20,-3.158839632833333,['Ti'],['O'],"[4, 5, 6, 7]",perovskite
ICSD-153174.cif,Ca Ti O3,5,-3.1142018633333337,['Ti'],['O'],[1],perovskite
ICSD-153303.cif,Al4 K4 O20 C4 H8,40,-1.8724095265000005,['Al'],['O'],"[4, 5, 6, 7]",perovskite
ICSD-15333.cif,Na6 N6 O18,30,-0.9662139538333347,['Na'],['O'],"[0, 1, 2, 3, 4, 5]",perovskite
ICSD-15344.cif,Rh8 S12,20,-0.7935191684999999,['Rh'],['S'],"[0, 1, 2, 3, 4, 5, 6, 7]",perovskite
ICSD-15346.cif,Na2 Al10 Ti4 O24,40,-2.976782156541667,['Al'],['O'],"[6, 7, 8, 9, 10, 11]",perovskite
ICSD-153495.cif,La Ba Co2 O6,10,-2.2507718045,['Co'],['O'],"[2, 3]",perovskite
ICSD-153531.cif,Sr4 Sn4 O12,20,-2.22623018175,['Sn'],['O'],"[4, 5, 6, 7]",perovskite
ICSD-153532.cif,Sr4 Sn4 O12,20,-2.22091373625,['Sn'],['O'],"[4, 5, 6, 7]",perovskite
ICSD-153544.cif,Sr4 Co2 Mo2 O12,20,-2.423501983,"['Mo', 'Co']",['O'],"[4, 5, 6, 7]",perovskite
ICSD-153697.cif,Ba5 Co5 O14,24,-2.08574315625,['Co'],['O'],[5],perovskite
ICSD-15369.cif,Ti14 Cl32,46,-1.51522505942029,['Ti'],['Cl'],"[0, 1]",perovskite
ICSD-15370.cif,Ti14 Br32,46,-1.1528806581159416,['Ti'],['Br'],"[0, 1]",perovskite
ICSD-15372.cif,K4 Cu2 F8,14,-2.2655993725,['Cu'],['F'],"[4, 5]",perovskite
ICSD-15373.cif,K6 Cu4 F14,24,-2.197607286770834,['Cu'],['F'],"[6, 7, 8, 9]",perovskite
ICSD-153805.cif,Ca8 Ru4 O16,28,-2.1683439546428582,['Ru'],['O'],"[8, 9, 10, 11]",perovskite
ICSD-153806.cif,Li8 S4 O16,28,-1.9263458555952389,['Li'],['O'],"[0, 1, 2, 3]",perovskite
ICSD-15381.cif,I18 Cd9,27,-0.6014220278703704,['Cd'],['I'],"[0, 1, 2, 3, 4, 5, 6, 7, 8]",perovskite
ICSD-153832.cif,La Al O3,5,-3.2533698485,['Al'],['O'],[1],perovskite
ICSD-153864.cif,Fe Mo2 K O8,12,-1.9721190158333344,['Fe'],['O'],[1],perovskite
ICSD-154021.cif,Re2 O4,6,-1.3703586999999997,['Re'],['O'],"[0, 1]",perovskite
ICSD-154039.cif,Ba4 Pb4 O12,20,-1.699530093,['Pb'],['O'],"[4, 5, 6, 7]",perovskite
ICSD-154074.cif,Ca K F3,5,-3.4470103082500003,['Ca'],['F'],[1],perovskite
ICSD-154092.cif,In2 Cl12 Na6,20,-1.54736550725,"['In', 'Na']",['Cl'],"[0, 1, 6, 7]",perovskite
ICSD-154103.cif,Zr4 Sr4 S12,20,-2.020135836,['Zr'],['S'],"[4, 5, 6, 7]",perovskite
ICSD-154104.cif,Sr4 Zr4 S12,20,-2.0197240095,['Zr'],['S'],"[4, 5, 6, 7]",perovskite
ICSD-15411.cif,Tl Sb Te2,4,-0.2312259670833328,"['Sb', 'Tl']",['Te'],"[0, 1, 2, 3]",perovskite
ICSD-154150.cif,Ba8 Bi4 Ta4 O24,40,-2.5561288187500004,"['Ta', 'Bi']",['O'],"[8, 9, 10, 11, 12, 13, 14, 15]",perovskite
ICSD-154215.cif,Ba3 Nb Ga3 Si2 O14,23,-2.647891099184783,['Nb'],['O'],[3],perovskite
ICSD-15424.cif,K Fe F3,5,-2.6814333472500005,['Fe'],['F'],[1],perovskite
ICSD-154260.cif,K6 Ti6 Br18,30,-1.320041772,['Ti'],['Br'],"[6, 7]",perovskite
ICSD-15429.cif,Ba5 Ta4 O15,24,-3.0523004735416666,['Ta'],['O'],"[5, 6]",perovskite
ICSD-154527.cif,Sc8 Pb4 S16,28,-1.6939527060714283,['Sc'],['S'],"[0, 1, 2, 3, 4, 5, 6, 7]",perovskite
ICSD-154528.cif,Sc8 Pb4 Se16,28,-1.384199624166666,['Sc'],['Se'],"[0, 1, 2, 3, 4, 5, 6, 7]",perovskite
ICSD-154674.cif,Fe2 I6 O18,26,-0.5502340097115389,['Fe'],['O'],"[0, 1]",perovskite
ICSD-154716.cif,Sn4 Se8 O24,36,-1.061372671342593,['Sn'],['O'],"[0, 1, 2, 3]",perovskite
ICSD-154792.cif,Y2 Ag2 Te4,8,-0.9436068533333328,['Y'],['Te'],"[0, 1]",perovskite
ICSD-155065.cif,Fe4 P4 O16,24,-1.9533510487103176,['Fe'],['O'],"[0, 1, 2, 3]",perovskite
ICSD-155151.cif,Fe4 Sb8 O16,28,-1.5012150121428565,['Fe'],['O'],"[0, 1, 2, 3]",perovskite
ICSD-155160.cif,Cs4 Ag4 Fe4 F24,36,-2.0994796536111107,['Fe'],['F'],"[4, 5, 6, 7]",perovskite
ICSD-155162.cif,In4 V4 O16,24,-2.0694316883333337,['In'],['O'],"[4, 5, 6, 7]",perovskite
ICSD-155174.cif,Fe2 Re2 Ba4 O12,20,-2.2129456515,"['Fe', 'Re']",['O'],"[4, 5, 6, 7]",perovskite
ICSD-155189.cif,Tl2 Co2 Cl6,10,-1.0072334787499997,['Co'],['Cl'],"[2, 3]",perovskite
ICSD-155190.cif,Tl6 Co6 Cl18,30,-1.0070331397499996,['Co'],['Cl'],"[6, 7, 8, 9, 10, 11]",perovskite
ICSD-155191.cif,Tl8 Co8 Cl24,40,-1.0428672962500003,['Co'],['Cl'],"[8, 9, 10, 11, 12, 13, 14, 15]",perovskite
ICSD-15520.cif,Ba4 Rh4 O12,20,-1.7018070599999997,['Rh'],['O'],"[4, 5, 6, 7]",perovskite
ICSD-15521.cif,Pb4 Fe3 O8 Cl,16,-1.2737454763281253,['Fe'],['O'],[2],perovskite
ICSD-155236.cif,Fe4 Sb4 Bi4 S16,28,-0.6161466307142857,['Fe'],['S'],"[0, 1, 2, 3]",perovskite
ICSD-155307.cif,Sr4 Mg2 W2 O12,20,-2.8065534345000005,"['Mg', 'W']",['O'],"[4, 5, 6, 7]",perovskite
ICSD-155421.cif,Rb4 Sr2 V8 O24,38,-2.517978736842106,['Rb'],['O'],"[0, 1, 2, 3]",perovskite
ICSD-155489.cif,Se4 Co4 O12,20,-1.0454316293333334,['Co'],['O'],"[0, 1, 2, 3]",perovskite
ICSD-155491.cif,Co8 Na4 O16,28,-1.7145222242857148,['Co'],['O'],"[4, 5, 6, 7, 8, 9, 10, 11]",perovskite
ICSD-155549.cif,Ba2 La Ru O6,10,-2.2989425285000005,"['Ru', 'La']",['O'],"[2, 3]",perovskite
ICSD-15564.cif,I4 Na4 O12,20,-0.9275267787500006,['Na'],['O'],"[0, 1, 2, 3]",perovskite
ICSD-155670.cif,Al Cl3,4,-0.6038527428124998,['Al'],['Cl'],[0],perovskite
ICSD-155837.cif,Y4 Co4 O12,20,-2.7736408749999995,['Co'],['O'],"[4, 5, 6, 7]",perovskite
ICSD-155955.cif,Ca4 Ga8 O16,28,-2.195894439642857,['Ga'],['O'],"[4, 5, 6, 7, 8, 9, 10, 11]",perovskite
ICSD-156157.cif,Na4 Mg4 F12,20,-3.2173073062499995,['Mg'],['F'],"[4, 5, 6, 7]",perovskite
ICSD-156194.cif,Ge8 Ca4 O20,32,-2.08625796625,['Ge'],['O'],"[4, 5, 6, 7]",perovskite
ICSD-15621.cif,Mn4 Na4 F12,20,-2.452133649543104,['Mn'],['F'],"[4, 5, 6, 7]",perovskite
ICSD-1562.cif,Ru8 K2 O16,26,-1.2484738580769226,['Ru'],['O'],"[2, 3, 4, 5, 6, 7, 8, 9]",perovskite
ICSD-156335.cif,Ba3 Ta2 Cd O9,15,-2.796435927333333,"['Ta', 'Cd']",['O'],"[3, 4, 5]",perovskite
ICSD-156433.cif,La2 K4 Nb10 O30,46,-2.8416711993478256,['Nb'],['O'],"[6, 7, 8, 9, 10, 11, 12, 13, 14, 15]",perovskite
ICSD-156589.cif,Mg4 Si4 O12,20,-2.627192515000001,['Si'],['O'],"[4, 5, 6, 7]",perovskite
ICSD-156705.cif,Ba9 Si9 O27,45,-2.7074624514444445,['Si'],['O'],"[9, 10, 11, 12, 13, 14, 15, 16, 17]",perovskite
ICSD-156706.cif,Ba6 Si6 O18,30,-2.593656692666668,['Si'],['O'],"[6, 7, 8, 9, 10, 11]",perovskite
ICSD-156740.cif,Cd6 C6 O18,30,-1.3591972273333328,['Cd'],['O'],"[0, 1, 2, 3, 4, 5]",perovskite
ICSD-157015.cif,Sr4 Ga2 Sb2 O12,20,-2.222364566375,"['Ga', 'Sb']",['O'],"[4, 5, 6, 7]",perovskite
ICSD-157017.cif,Sr8 Ga4 Sb4 O24,40,-2.2093983846250005,"['Ga', 'Sb']",['O'],"[8, 9, 10, 11, 12, 13, 14, 15]",perovskite
ICSD-157027.cif,Sr8 Mo4 Ni4 O24,40,-2.2239448215000004,"['Mo', 'Ni']",['O'],"[8, 9, 10, 11, 12, 13, 14, 15]",perovskite
ICSD-157323.cif,In3 Fe6 O12,21,-1.5203015290476192,['In'],['O'],"[0, 1, 2]",perovskite
ICSD-157457.cif,Ca6 Al12 O24,42,-3.0671501138095243,['Ca'],['O'],"[0, 1]",perovskite
ICSD-157544.cif,Sr8 Cr4 Ta4 O24,40,-2.7274547579999995,"['Ta', 'Cr']",['O'],"[8, 9, 10, 11, 12, 13, 14, 15]",perovskite
ICSD-157603.cif,Sr8 Fe4 Mo4 O24,40,-2.515919759750001,"['Mo', 'Fe']",['O'],"[8, 9, 10, 11, 12, 13, 14, 15]",perovskite
ICSD-15772.cif,Cs8 Tl4 Mo4 F24,40,-2.3056971995000004,"['Mo', 'Tl']",['F'],"[8, 9, 10, 11, 12, 13, 14, 15]",perovskite
ICSD-15773.cif,Rb8 K4 Mo4 F24,40,-2.5019397475000007,"['K', 'Mo']",['F'],"[0, 1, 2, 3, 12, 13, 14, 15]",perovskite
ICSD-15774.cif,Rb8 Na4 Mo4 F24,40,-2.5216381745,"['Na', 'Mo']",['F'],"[8, 9, 10, 11, 12, 13, 14, 15]",perovskite
ICSD-15776.cif,Tl8 Na4 Mo4 F24,40,-2.096614786,"['Na', 'Mo']",['F'],"[0, 1, 2, 3, 12, 13, 14, 15]",perovskite
ICSD-15777.cif,K8 Na4 Mo4 F24,40,-2.5145775297500004,"['Na', 'Mo']",['F'],"[8, 9, 10, 11, 12, 13, 14, 15]",perovskite
ICSD-15784.cif,Cs2 Na Al3 F12,18,-3.3770368456944446,"['Al', 'Na']",['F'],"[2, 3, 4, 5]",perovskite
ICSD-15785.cif,Cs2 Li Al3 F12,18,-3.3875341200462965,"['Li', 'Al', 'Cs']",['F'],"[0, 1, 2, 3, 4, 5]",perovskite
ICSD-157886.cif,Sr8 Y4 Sb4 O24,40,-2.666080881500001,"['Y', 'Sb']",['O'],"[8, 9, 10, 11, 12, 13, 14, 15]",perovskite
ICSD-157998.cif,Ba6 Ga2 Co11 O26,45,-2.082981179611112,['Co'],['O'],"[10, 11, 12, 13, 14, 15, 16, 17, 18]",perovskite
ICSD-15830.cif,Fe8 Si4 O16,28,-2.2492820710714283,['Fe'],['O'],"[0, 1, 2, 3, 4, 5, 6, 7]",perovskite
ICSD-158392.cif,Bi8 Pb4 S16,28,-0.5669279282142858,['Bi'],['S'],"[0, 1, 2, 3, 4, 5, 6, 7]",perovskite
ICSD-158483.cif,K4 Si2 F12,18,-3.1420758386111114,['Si'],['F'],"[4, 5]",perovskite
ICSD-15854.cif,Co4 Nb8 O24,36,-2.499458708333335,['Co'],['O'],"[8, 9, 10, 11]",perovskite
ICSD-15857.cif,Mn4 Ta8 O24,36,-2.573140222107281,['Mn'],['O'],"[8, 9, 10, 11]",perovskite
ICSD-158589.cif,Ge2 O4,6,-1.6216233400000004,['Ge'],['O'],"[0, 1]",perovskite
ICSD-158599.cif,Ge2 O4,6,-1.6216364500000005,['Ge'],['O'],"[0, 1]",perovskite
ICSD-158650.cif,Mn4 S4,8,-0.3518770757327592,['Mn'],['S'],"[0, 1, 2, 3, 4, 5, 6, 7]",perovskite
ICSD-158732.cif,Mn4 Ti4 O12,20,-2.251494543626437,['Ti'],['O'],"[0, 1, 2, 3]",perovskite
ICSD-15874.cif,Na2 O2 C2 N8 H6,20,-0.3796453477500002,['Na'],"['N', 'O']","[0, 1]",perovskite
ICSD-158753.cif,Cd4 Ge4 O12,20,-1.3408801530000012,['Ge'],['O'],"[4, 5, 6, 7]",perovskite