file_name,formula,atom_num,formation_energy,B_element,X_element,sites,perovskite_judge
ICSD-67264.cif,Li14 Br6 O4,24,-1.7048930773611115,['O'],['Li'],"[20, 21, 22, 23]",anti-perovskite
ICSD-67265.cif,Li3 Br O,5,-1.7191261839999998,['O'],['Li'],[4],anti-perovskite
ICSD-67319.cif,O Cl Na3,5,-1.4641373782499998,['O'],['Na'],[4],anti-perovskite
ICSD-67395.cif,Ba6 Cu3 Br3 O6,18,-2.0672540929166656,['Br'],['Ba'],"[9, 10, 11]",anti-perovskite
ICSD-67402.cif,Mn4 Ga8 Te16,28,-0.2153001736617404,['Mn'],['Te'],"[0, 1, 2, 3]",perovskite
ICSD-67500.cif,Mn3 Br6,9,-0.6553081863218391,['Mn'],['Br'],"[0, 1, 2]",perovskite
ICSD-67517.cif,Mn16 Br32,48,-0.5793651431968391,['Mn'],['Br'],"[0, 1, 2, 3, 4, 5, 6, 7, 8, 9, 10, 11, 12, 13, 14, 15]",perovskite
ICSD-67523.cif,Li4 Mg4 As4 O16,28,-2.0086565279761914,"['Li', 'Mg']",['O'],"[0, 1, 2, 3, 4, 5, 6, 7]",perovskite
ICSD-67598.cif,Ba8 Na2 Ru6 O24,40,-1.87369989625,"['Na', 'Ru']",['O'],"[8, 9, 10, 11, 12, 13, 14, 15]",perovskite
ICSD-67609.cif,Te4 F24,28,-2.005256948095238,['Te'],['F'],"[0, 1, 2, 3]",perovskite
ICSD-67676.cif,Ta4 Al4 O16,24,-2.98383238875,"['Ta', 'Al']",['O'],"[0, 1, 2, 3, 4, 5, 6, 7]",perovskite
ICSD-67701.cif,Y3 Fe6 O12,21,-2.1732783888095244,['Y'],['O'],"[0, 1, 2]",perovskite
ICSD-67711.cif,Y Ba2 Fe3 O8,14,-2.210461052857144,['Fe'],['O'],[3],perovskite
ICSD-67916.cif,K4 Fe4 Se8 O24,40,-1.2038859360833336,['Fe'],['O'],"[4, 5, 6, 7]",perovskite
ICSD-67981.cif,Li6 N6 O18,30,-0.9895911205000004,['Li'],['O'],"[0, 1, 2, 3, 4, 5]",perovskite
ICSD-67982.cif,Zr3 K6 O18 B6,33,-2.6840829307575764,['Zr'],['O'],"[6, 7, 8]",perovskite
ICSD-68103.cif,Te20 Pd4 Nb4,28,-0.4000428794047615,['Pd'],['Te'],"[24, 25, 26, 27]",perovskite
ICSD-68111.cif,Ge3 Te12 As6,21,-0.026294422857143,"['As', 'Ge']",['Te'],"[0, 1, 2, 9, 10, 11, 12, 13, 14, 15, 16, 17, 18, 19, 20]",perovskite
ICSD-68112.cif,Ge2 Te5 As2,9,-0.0367587337037033,"['As', 'Ge']",['Te'],"[0, 1, 2, 3, 4, 7, 8]",perovskite
ICSD-68113.cif,Ge9 Te18 As6,33,-0.0435978715151515,['Ge'],['Te'],"[0, 1, 2, 3, 4, 5, 6, 7, 8, 9, 10, 11, 12, 13, 14, 21, 22, 23, 24, 25, 26, 27, 28, 29, 30, 31, 32]",perovskite
ICSD-68114.cif,Te21 Ge12 As6,39,-0.048267831794871,['Ge'],"['As', 'Te']","[0, 1, 2, 3, 4, 5, 6, 7, 8, 9, 10, 11, 12, 13, 14, 21, 22, 23, 24, 25, 26, 27, 28, 29, 30, 31, 32, 33, 34, 35, 36, 37, 38]",perovskite
ICSD-68167.cif,Ni4 S8,12,-0.4969900783333329,['Ni'],['S'],"[0, 1, 2, 3]",perovskite
ICSD-68226.cif,Bi2 K12 Cl16 F8 H6,44,-1.8277491807954545,"['Bi', 'K']",['Cl'],"[0, 1, 2, 3, 4, 5, 12, 13, 32, 33, 34, 35]",perovskite
ICSD-68372.cif,Te6 O18,24,-0.8187669183333336,['Te'],['O'],"[0, 1, 2, 3, 4, 5]",perovskite
ICSD-68464.cif,O8 Cr2 K3 Na,14,-2.022991113571429,['Na'],['O'],[3],perovskite
ICSD-68472.cif,Ru4 S8,12,-0.8775452599999992,['Ru'],['S'],"[0, 1, 2, 3]",perovskite
ICSD-68611.cif,Ba8 Bi4 Y4 O24,40,-2.43221671675,"['Bi', 'Y']",['O'],"[8, 9, 10, 11, 12, 13, 14, 15]",perovskite
ICSD-68645.cif,In2 Zn3 S6,11,-0.7756077772727271,['In'],['S'],[4],perovskite
ICSD-68826.cif,Al6 F18,24,-3.547667209270833,['Al'],['F'],"[0, 1, 2, 3, 4, 5]",perovskite
ICSD-68847.cif,Fe8 S8,16,-1.12372172125,['Fe'],['S'],"[0, 1, 2, 3, 4, 5, 6, 7]",perovskite
ICSD-68980.cif,Na4 Sn2 F12,18,-2.7084637862500003,"['Na', 'Sn']",['F'],"[0, 1, 2, 3, 4, 5]",perovskite
ICSD-68981.cif,Na4 Fe4 F12,20,-2.65007176525,['Fe'],['F'],"[4, 5, 6, 7]",perovskite
ICSD-68982.cif,Ge4 Rb8 F24,36,-2.757758765,['Ge'],['F'],"[8, 9, 10, 11]",perovskite
ICSD-69012.cif,Sr4 V2 O8,14,-2.7807515078571434,['V'],['O'],"[4, 5]",perovskite
ICSD-69028.cif,Tl20 Te12,32,-0.2758654965624996,['Tl'],['Te'],"[16, 17, 18, 19]",perovskite
ICSD-69034.cif,Li8 Zn4 I16,28,-0.9605900438095236,['Li'],['I'],"[0, 1, 2, 3, 4, 5, 6, 7]",perovskite
ICSD-69090.cif,Ba6 Zn2 Ru4 O18,30,-1.8509661876666663,"['Ru', 'Zn']",['O'],"[6, 7, 8, 9, 10, 11]",perovskite
ICSD-69142.cif,Ir4 Cs8 Cl24,36,-1.2547397741666666,['Ir'],['Cl'],"[8, 9, 10, 11]",perovskite
ICSD-69167.cif,V6 F18,24,-2.7660312303125,['V'],['F'],"[0, 1, 2, 3, 4, 5]",perovskite
ICSD-69296.cif,Cd4 Sn2 O8,14,-1.3292714469642857,['Sn'],['O'],"[4, 5]",perovskite
ICSD-69343.cif,Mg2 Na4 Cl8,14,-1.8288370735714288,['Mg'],['Cl'],"[4, 5]",perovskite
ICSD-69344.cif,Cd2 Na4 Cl8,14,-1.5012582357142858,['Cd'],['Cl'],"[4, 5]",perovskite
ICSD-69349.cif,Zn4 Na4 F12,20,-2.50777186025,['Zn'],['F'],"[4, 5, 6, 7]",perovskite
ICSD-69438.cif,K6 Pt12 Se18,36,-0.7303301719444444,['Pt'],['Se'],"[6, 7, 8]",perovskite
ICSD-69439.cif,Rb6 Pt12 Se18,36,-0.7341152616666666,['Pt'],['Se'],"[6, 7, 8]",perovskite
ICSD-69440.cif,Cs6 Pt12 Se18,36,-0.751995336527778,['Pt'],['Se'],"[6, 7, 8]",perovskite
ICSD-69616.cif,Ni8 Ga4 B4 O20,36,-1.6615432351388892,['Ga'],['O'],"[0, 1, 2, 3]",perovskite
ICSD-69623.cif,Ge3 Na6 F18,27,-2.703286636203704,"['Na', 'Ge']",['F'],"[3, 4, 5, 6, 7, 8]",perovskite
ICSD-69659.cif,Cr2 S2 Br2,6,-0.539107385,['Cr'],"['S', 'Br']","[0, 1]",perovskite
ICSD-69681.cif,Rb4 Mg2 F8,14,-3.1097672785714283,['Mg'],['F'],"[4, 5]",perovskite
ICSD-69682.cif,Rb4 Ni2 F8,14,-2.437121067142857,['Ni'],['F'],"[4, 5]",perovskite
ICSD-69683.cif,Rb4 Co2 F8,14,-2.5900674407142854,['Co'],['F'],"[4, 5]",perovskite
ICSD-69995.cif,Cs2 Sn2 I6,10,-0.9774464405,['Sn'],['I'],"[2, 3]",perovskite
ICSD-69996.cif,Cs4 Sn4 I12,20,-0.978631155,['Sn'],['I'],"[4, 5, 6, 7]",perovskite
ICSD-70103.cif,Co12 O20 B4,36,-1.916446871111112,['Co'],['O'],"[0, 1, 2, 3, 4, 5, 6, 7, 8, 9, 10, 11]",perovskite
ICSD-710094.cif,Cd2 O12 C4 F2 Rb2 Li4,26,-1.8599627169551287,['Cd'],['O'],"[6, 7]",perovskite
ICSD-71010.cif,In2 Fe2 O6,10,-1.4452436430000002,['In'],['O'],"[0, 1]",perovskite
ICSD-71027.cif,Mn2 F4,6,-2.233932375488506,['Mn'],['F'],"[0, 1]",perovskite
ICSD-71149.cif,Zr12 Cl30 Ni2,44,-1.7118156783522729,"['Ni', 'Zr']",['Cl'],"[0, 1, 2, 3, 4, 5, 6, 7, 8, 9, 10, 11, 12, 13]",perovskite
ICSD-71209.cif,Ba6 Ca2 Ru4 O18,30,-2.096850765000001,"['Ru', 'Ca']",['O'],"[6, 7, 8, 9, 10, 11]",perovskite
ICSD-71218.cif,Nb16 K2 O28,46,-2.5293729860869565,['Nb'],['O'],"[14, 15, 16, 17]",perovskite
ICSD-71292.cif,Ta4 Pt4 Te20,28,-0.3874934144047617,['Pt'],['Te'],"[24, 25, 26, 27]",perovskite
ICSD-71325.cif,Tl8 Sr4 O16,28,-1.3261452053571432,['Tl'],['O'],"[8, 9, 10, 11]",perovskite
ICSD-71334.cif,K4 Na4 Si4 F24,36,-3.1143309294444435,['Si'],['F'],"[8, 9, 10, 11]",perovskite
ICSD-71421.cif,Ni Li2 O2,5,-1.755275295333334,['Ni'],['O'],[2],perovskite
ICSD-71451.cif,Sr6 V4 O14,24,-2.7888295504166662,['V'],['O'],"[6, 7, 8, 9]",perovskite
ICSD-71536.cif,K6 Co3 Se6 O18,33,-1.2993153040909091,['Co'],['O'],"[6, 7, 8]",perovskite
ICSD-71537.cif,Co4 Se8 O20,32,-0.9170719388541676,['Co'],['O'],"[0, 1, 2, 3]",perovskite
ICSD-71540.cif,K6 Mn3 Se6 O18,33,-1.2852984829362593,['Mn'],['O'],"[6, 7, 8]",perovskite
ICSD-71602.cif,Ba10 Ir2 In4 Al4 Cl2 O26,48,-2.3107775990104167,"['In', 'Ir']",['O'],"[14, 15, 16, 17, 18, 19]",perovskite
ICSD-71656.cif,Bi4 Fe4 Mn4 O20,32,-1.5441797645581898,['Fe'],['O'],"[4, 5, 6, 7]",perovskite
ICSD-71814.cif,Mn4 As4 Li4 O16,28,-1.5259177678284082,"['Li', 'Mn']",['O'],"[0, 1, 2, 3, 4, 5, 6, 7]",perovskite
ICSD-71839.cif,Sr8 Cd4 W4 O24,40,-2.3543568074999994,"['Cd', 'W']",['O'],"[8, 9, 10, 11, 12, 13, 14, 15]",perovskite
ICSD-71862.cif,Cd4 P4 O16 Li4,28,-2.065453557227892,['Li'],['O'],"[0, 1, 2, 3]",perovskite
ICSD-71968.cif,Ag2 In2 P4 Se12,20,-0.2350393249523805,"['In', 'Ag']",['Se'],"[0, 1, 2, 3]",perovskite
ICSD-71969.cif,Cu2 In2 P4 Se12,20,-0.2278347922023812,"['In', 'Cu']",['Se'],"[0, 1, 2, 3]",perovskite
ICSD-72042.cif,Ti16 S32,48,-1.4527374345138888,['Ti'],['S'],"[0, 1, 2, 3, 4, 5, 6, 7, 8, 9, 10, 11, 12, 13, 14, 15]",perovskite
ICSD-72110.cif,Na8 Ni4 In4 F28,44,-2.4928007835227275,"['In', 'Na']",['F'],"[0, 1, 2, 3, 4, 5, 6, 7, 8, 9, 10, 11]",perovskite
ICSD-72269.cif,Ba Pb O3,5,-1.6718328445000004,['Pb'],['O'],[1],perovskite
ICSD-72289.cif,Na8 Ni4 Al4 F28,44,-2.8517289739772727,"['Al', 'Na', 'Ni']",['F'],"[4, 5, 6, 7, 8, 9, 10, 11, 12, 13, 14, 15]",perovskite
ICSD-72299.cif,Rb4 Pd8 F20,32,-1.6921412932812498,['Pd'],['F'],"[4, 5, 6, 7]",perovskite
ICSD-72320.cif,Zn4 Na4 F12,20,-2.50809980125,['Zn'],['F'],"[4, 5, 6, 7]",perovskite
ICSD-72352.cif,Hg2 Rb4 F8,14,-2.184470517142857,['Hg'],['F'],"[4, 5]",perovskite
ICSD-72353.cif,Hg2 Cs4 F8,14,-2.208377027142857,['Hg'],['F'],"[4, 5]",perovskite
ICSD-72441.cif,Au Te2,3,-0.048830059444444,['Au'],['Te'],[2],perovskite
ICSD-72740.cif,Ba4 Ti4 F16 O4,28,-3.604815557738095,['Ti'],"['O', 'F']","[4, 5, 6, 7]",perovskite
ICSD-72813.cif,W2 Cu2 Ba4 O12,20,-2.2528549197500007,['W'],['O'],"[6, 7]",perovskite
ICSD-72815.cif,Sr8 Ca4 Mo4 O24,40,-2.67321629825,"['Mo', 'Ca']",['O'],"[8, 9, 10, 11, 12, 13, 14, 15]",perovskite
ICSD-72831.cif,Rb2 Nb F6,9,-3.0054482197222225,['Nb'],['F'],[2],perovskite
ICSD-72832.cif,Cs2 Nb F6,9,-3.021108999166666,['Nb'],['F'],[2],perovskite
ICSD-72839.cif,Bi2 Ba6 Na2 O12,22,-2.072944953181818,['Bi'],['O'],"[8, 9]",perovskite
ICSD-72840.cif,Bi K Li6 O6,14,-1.7258658342857145,['Bi'],['O'],[7],perovskite
ICSD-72872.cif,Co2 Re2 O8,12,-1.6499575583333332,"['Re', 'Co']",['O'],"[0, 1, 2, 3]",perovskite
ICSD-73088.cif,Pb4 Tl16 Te12,32,-0.3288600009374996,['Pb'],['Te'],"[28, 29, 30, 31]",perovskite
ICSD-73109.cif,Li2 Nb2 O4,8,-2.4518106433333333,['Li'],['O'],"[0, 1, 4, 5, 6, 7]",perovskite
ICSD-73111.cif,Na2 Nb2 O4,8,-2.2856543474999995,['Na'],['O'],"[0, 1, 4, 5, 6, 7]",perovskite
ICSD-73114.cif,Pt3 Mn3 F18,24,-1.7490232895581894,"['Mn', 'Pt']",['F'],"[0, 1, 2, 3, 4, 5]",perovskite
ICSD-73115.cif,Mn4 Li4 O16,24,-1.5178325270498096,['Li'],['O'],"[0, 1, 2, 3]",perovskite
ICSD-73132.cif,Li2 Pd2 Al2 F12,18,-2.647625807592593,['Al'],['F'],"[2, 3]",perovskite
ICSD-73133.cif,Pd3 Zr3 F18,24,-2.7192288619791665,"['Pd', 'Zr']",['F'],"[0, 1, 2, 3, 4, 5]",perovskite
ICSD-73159.cif,Ta3 K3 Li18 O18,42,-2.2522009086904764,['Ta'],['O'],"[21, 22, 23]",perovskite
ICSD-73166.cif,Rb Pd F3,5,-1.89122485925,['Pd'],['F'],[1],perovskite
ICSD-73167.cif,K Pd F3,5,-1.89179662625,['Pd'],['F'],[1],perovskite
ICSD-73174.cif,K4 Te4,8,-0.8467888358333333,['K'],['Te'],"[0, 1]",perovskite
ICSD-73183.cif,Ba6 Ca2 Ru4 O18,30,-2.0968489620000006,"['Ru', 'Ca']",['O'],"[6, 7, 8, 9, 10, 11]",perovskite
ICSD-73223.cif,Li8 Zn4 Br16,28,-1.2777561430952384,['Li'],['Br'],"[0, 1, 2, 3, 4, 5, 6, 7]",perovskite
ICSD-73224.cif,Na8 Zn4 Br16,28,-1.314615185357143,['Na'],['Br'],"[0, 1, 2, 3, 4, 5, 6, 7]",perovskite
ICSD-73228.cif,Li4 Co2 Cl8,14,-1.4886259488095237,"['Li', 'Co']",['Cl'],"[0, 1, 2, 3, 4, 5]",perovskite
ICSD-73276.cif,Li4 Mg2 Br8,14,-1.5403593538095242,"['Li', 'Mg']",['Br'],"[0, 1, 2, 3, 4, 5]",perovskite
ICSD-73300.cif,K6 Na2 Re4 O18,30,-1.8412805203333336,['Na'],['O'],"[6, 7]",perovskite
ICSD-73314.cif,Te20 Ta4 Ni4,28,-0.346899752619048,['Ni'],['Te'],"[4, 5, 6, 7]",perovskite
ICSD-73316.cif,Te20 Nb4 Ni4,28,-0.3929241701190469,['Ni'],['Te'],"[4, 5, 6, 7]",perovskite
ICSD-73339.cif,I6 Sc2 Li2,10,-1.1281478279166663,"['Li', 'Sc']",['I'],"[0, 1, 2, 3]",perovskite
ICSD-73353.cif,V3 Nb3 F18,24,-2.7671762571875,"['V', 'Nb']",['F'],"[0, 1, 2, 3, 4, 5]",perovskite
ICSD-73354.cif,Zr4 V4 F24,32,-3.1912530856249988,"['V', 'Zr']",['F'],"[0, 1, 2, 3, 4, 5, 6, 7]",perovskite
ICSD-73394.cif,Sr4 Ru2 O8,14,-2.1628364157142856,['Ru'],['O'],"[4, 5]",perovskite
ICSD-73450.cif,K4 Ni2 F8,14,-2.3534811057142853,['Ni'],['F'],"[4, 5]",perovskite
ICSD-73464.cif,Se2 K3 Na O8,14,-1.4127624966666668,['Na'],['O'],[3],perovskite
ICSD-73532.cif,Cs3 La3 S6,12,-1.9722928572916671,['La'],['S'],"[3, 4, 5]",perovskite
ICSD-73698.cif,Sr8 V6 O20,34,-2.788280894117647,['V'],['O'],"[8, 9, 10, 11, 12, 13]",perovskite
ICSD-73711.cif,Sn4 Zr4 S12,20,-1.3403157057500004,['Zr'],['S'],"[0, 1, 2, 3]",perovskite
ICSD-73720.cif,W12 O32,44,-2.1504798729545445,['W'],['O'],"[8, 9, 10, 11]",perovskite
ICSD-73728.cif,Ni2 F4,6,-1.640182384166667,['Ni'],['F'],"[0, 1]",perovskite
ICSD-73736.cif,Cs V S2 O8,12,-1.7472546668750002,['V'],['O'],[1],perovskite
ICSD-73874.cif,Ni2 Li4 O4,10,-1.755565349333334,['Ni'],['O'],"[4, 5]",perovskite
ICSD-73881.cif,Fe12 Na4 O20,36,-1.6794547955555563,['Fe'],['O'],"[4, 5, 6, 7, 12, 13, 14, 15]",perovskite
ICSD-73886.cif,Na4 Cu4 Ti4 S12,24,-1.2124675377777774,['Ti'],['S'],"[4, 5, 6, 7]",perovskite
ICSD-73887.cif,Na4 Cu4 Zr4 S12,24,-1.4032807024999994,['Zr'],['S'],"[4, 5, 6, 7]",perovskite
ICSD-73888.cif,Na4 Cu4 Zr4 Se12,24,-1.126033596666667,['Zr'],['Se'],"[4, 5, 6, 7]",perovskite
ICSD-73889.cif,Na4 Cu4 Zr4 Te12,24,-0.7803000641666665,['Zr'],['Te'],"[4, 5, 6, 7]",perovskite
ICSD-73893.cif,Ba12 Cr4 O20,36,-2.443005720277778,['O'],['Ba'],"[16, 17, 18, 19]",anti-perovskite
ICSD-73899.cif,La4 V4 O12,20,-2.8492194810000004,['V'],['O'],"[4, 5, 6, 7]",perovskite
ICSD-73974.cif,Ag3 Ni3 O6,12,-0.713195807083333,['Ni'],['O'],"[0, 1, 2]",perovskite
ICSD-74173.cif,As6 Zn6 O24 Na6,42,-1.5451629614285716,['Na'],['O'],"[0, 1]",perovskite
ICSD-74194.cif,Ag4 La4 Ti6 O20,34,-2.6682689417647056,['Ti'],['O'],"[4, 5]",perovskite
ICSD-74210.cif,Al2 Na6 F12,20,-3.081969669,"['Al', 'Na']",['F'],"[0, 1, 6, 7]",perovskite
ICSD-74316.cif,In8 Ti4 O20,32,-2.146205788645833,['In'],['O'],"[4, 5, 6, 7, 8, 9, 10, 11]",perovskite
ICSD-74410.cif,Ba8 Cr4 Ta4 O24,40,-2.7086533260000007,"['Ta', 'Cr']",['O'],"[8, 9, 10, 11, 12, 13, 14, 15]",perovskite
ICSD-74494.cif,La6 Al6 O18,30,-3.256795928500001,['Al'],['O'],"[6, 7, 8, 9, 10, 11]",perovskite
ICSD-74500.cif,K8 Hg4 S8,20,-0.9587269495,['K'],['S'],"[0, 1, 2, 3]",perovskite
ICSD-74527.cif,Al4 P6 O18 H6,34,-2.070213666869748,['Al'],['O'],"[0, 1, 2, 3]",perovskite
ICSD-74528.cif,Ga4 P6 O18 H6,34,-1.6836602717226892,['Ga'],['O'],"[0, 1, 2, 3]",perovskite
ICSD-74539.cif,Ca Sb2 O6,9,-1.91835004,"['Sb', 'Ca']",['O'],"[0, 1, 2]",perovskite
ICSD-74540.cif,Sr Sb2 O6,9,-1.9341958366666665,"['Sb', 'Sr']",['O'],"[0, 1, 2]",perovskite
ICSD-74541.cif,Ba Sb2 O6,9,-1.923540390555556,"['Sb', 'Ba']",['O'],"[0, 1, 2]",perovskite
ICSD-74565.cif,Mo2 Li4 F12,18,-2.723221199351852,"['Li', 'Mo']",['F'],"[0, 1, 2, 3, 4, 5]",perovskite
ICSD-74601.cif,Sb4 S12 Cr4,20,-0.5429106744999999,['Cr'],['S'],"[0, 1, 2, 3]",perovskite
ICSD-74680.cif,Os3 S6 Cl36,45,-0.3114533916666662,['Os'],['Cl'],"[0, 1, 2]",perovskite
ICSD-74770.cif,Hg8 Br4 P12,24,-0.1452597432142853,['Br'],['Hg'],"[20, 21, 22, 23]",anti-perovskite
ICSD-74830.cif,Li3 P3 F18,24,-2.724172255699405,"['Li', 'P']",['F'],"[0, 1, 2, 3, 4, 5]",perovskite
ICSD-74831.cif,Li3 As3 F18,24,-2.3747621042708342,"['Li', 'As']",['F'],"[0, 1, 2, 3, 4, 5]",perovskite
ICSD-75001.cif,Te6 Al2 Si2,10,-0.2699137404999995,['Al'],['Te'],"[0, 1]",perovskite
ICSD-75159.cif,V12 O22 Na2,36,-2.3584386016666667,['V'],['O'],"[8, 9, 10, 11]",perovskite
ICSD-75171.cif,Y4 P8 K4 O28,44,-2.7135079174567096,['Y'],['O'],"[4, 5, 6, 7]",perovskite
ICSD-75179.cif,Ti4 O8,12,-3.03070476888889,['Ti'],['O'],"[0, 1, 2, 3]",perovskite
ICSD-75241.cif,Ba6 Zr4 S14,24,-2.066745120416666,['Zr'],['S'],"[6, 7, 8, 9]",perovskite
ICSD-75254.cif,In6 O18 B6,30,-2.0580902678333333,['In'],['O'],"[0, 1, 2, 3, 4, 5]",perovskite
ICSD-75273.cif,Cd4 Se4 O12,20,-1.000346334833334,['Cd'],['O'],"[0, 1, 2, 3]",perovskite
ICSD-75384.cif,Cr2 Nb2 F12,16,-2.6970379440625,"['Nb', 'Cr']",['F'],"[0, 1, 2, 3]",perovskite
ICSD-75469.cif,In4 Fe4 Br12,20,-0.8590248575,['Fe'],['Br'],"[4, 5, 6, 7]",perovskite
ICSD-75470.cif,In4 Mn4 Br12,20,-0.6511506462931035,['Mn'],['Br'],"[0, 1, 2, 3]",perovskite
ICSD-75513.cif,Sb4 Te12 Na12,28,-0.642585602857143,['Na'],['Te'],"[0, 1, 2, 3, 4, 5, 6, 7, 8, 9, 10, 11]",perovskite
ICSD-75532.cif,Cu4 Ir8 S16,28,-0.6496738492857139,['Ir'],['S'],"[4, 5, 6, 7, 8, 9, 10, 11]",perovskite
ICSD-75569.cif,La4 Ru4 O12,20,-2.2141352944999992,['Ru'],['O'],"[4, 5, 6, 7]",perovskite
ICSD-75588.cif,Na3 Fe3 O6,12,-1.7245754758333334,"['Na', 'Fe']",['O'],"[0, 1, 2, 3, 4, 5]",perovskite
ICSD-759331.cif,Te4 Na8 O16,28,-1.4339179873809524,['Te'],['O'],"[8, 9, 10, 11]",perovskite
ICSD-759333.cif,Ba6 Ni2 Ir4 O18,30,-1.6218996973333342,"['Ir', 'Ni']",['O'],"[6, 7, 8, 9, 10, 11]",perovskite
ICSD-759334.cif,Rb2 Cd2 P6 O18,28,-2.1124738438775514,['Cd'],['O'],"[2, 3]",perovskite
ICSD-759339.cif,Hf4 Sr4 Se12,20,-1.6476884265000002,['Hf'],['Se'],"[4, 5, 6, 7]",perovskite
ICSD-75959.cif,Tl20 Cl4 Se8,32,-0.5269948318229165,['Tl'],"['Se', 'Cl']","[0, 1, 2, 3]",perovskite
ICSD-75960.cif,Tl20 Br4 Se8,32,-0.4982928882291669,['Tl'],"['Se', 'Br']","[0, 1, 2, 3]",perovskite
ICSD-759747.cif,Sn2 O4,6,-1.652358362916667,['Sn'],['O'],"[0, 1]",perovskite
ICSD-75986.cif,Ba6 Mg3 B6 O18,33,-2.7667793895454547,['Mg'],['O'],"[6, 7, 8]",perovskite
ICSD-76001.cif,Na8 Cr4 O16,28,-1.9591700260714284,['Na'],['O'],"[4, 5, 6, 7]",perovskite
ICSD-76019.cif,Zr4 O4,8,-2.217308022500001,['Zr'],['O'],"[0, 1, 2, 3, 4, 5, 6, 7]",perovskite
ICSD-76032.cif,Sn4 Se4,8,-0.435249026458334,['Sn'],['Se'],"[0, 1, 2, 3, 4, 5, 6, 7]",perovskite
ICSD-760462.cif,Cs8 Sn4 I24,36,-0.94075903875,['Sn'],['I'],"[8, 9, 10, 11]",perovskite
ICSD-760468.cif,Cs8 Sn4 Br24,36,-1.2718116543055558,['Sn'],['Br'],"[8, 9, 10, 11]",perovskite
ICSD-76047.cif,Ga La O3,5,-1.1151894407500005,['La'],['O'],[0],perovskite
ICSD-76086.cif,Mn4 O4,8,-1.1830793757327591,['Mn'],['O'],"[0, 1, 2, 3, 4, 5, 6, 7]",perovskite
ICSD-76275.cif,Ru4 K8 Cl24,36,-1.1978986858333331,['Ru'],['Cl'],"[8, 9, 10, 11]",perovskite
ICSD-76436.cif,Ba8 Ca4 W4 O24,40,-2.8397415885000004,"['W', 'Ca']",['O'],"[8, 9, 10, 11, 12, 13, 14, 15]",perovskite
ICSD-76437.cif,Ba12 W4 O24,40,-2.6123230232500005,"['Ba', 'W']",['O'],"[8, 9, 10, 11, 12, 13, 14, 15]",perovskite
ICSD-76541.cif,Na3 V3 S6,12,-1.1272294970833332,['V'],['S'],"[3, 4, 5]",perovskite
ICSD-76543.cif,Na3 Y3 S6,12,-2.007937779166668,"['Na', 'Y']",['S'],"[0, 1, 2, 3, 4, 5, 6, 7, 8, 9, 10, 11]",perovskite
ICSD-76567.cif,Nb6 S8,14,-1.315882807857142,['Nb'],['S'],"[0, 1, 2, 3, 4, 5]",perovskite
ICSD-76576.cif,Nb Se2,3,-0.8609220294444443,['Nb'],['Se'],[0],perovskite
ICSD-76639.cif,Fe4 O4,8,-1.726533,['Fe'],['O'],"[0, 1, 2, 3, 4, 5, 6, 7]",perovskite
ICSD-76640.cif,Ni4 O4,8,-0.7793538850000004,['Ni'],['O'],"[0, 1, 2, 3, 4, 5, 6, 7]",perovskite
ICSD-7664.cif,Ag3 Bi3 Se6,12,-0.2847936775000003,"['Ag', 'Bi']",['Se'],"[0, 1, 2, 3, 4, 5, 6, 7, 8, 9, 10, 11]",perovskite
ICSD-76919.cif,Mg6 Si4 O18 H8,36,-2.268504834166667,['Mg'],['O'],"[0, 1, 2, 3, 4, 5]",perovskite
ICSD-76967.cif,Tl I O3,5,-0.32389120375,['I'],['O'],[1],perovskite
ICSD-77064.cif,Cd8 Sb8 O28,44,-1.347940461590909,['Sb'],['O'],"[8, 9, 10, 11, 12, 13, 14, 15]",perovskite
ICSD-77142.cif,Sr Co O3,5,-1.9529149090000004,['Co'],['O'],[1],perovskite
ICSD-77196.cif,Rb3 Br O,5,-1.273929506,['O'],['Rb'],[4],anti-perovskite
ICSD-77242.cif,Cs Ca Br3,5,-2.0032439585,['Ca'],['Br'],[1],perovskite
ICSD-77325.cif,Pb3 I6,9,-0.6907548916666665,['Pb'],['I'],"[0, 1, 2]",perovskite
ICSD-77343.cif,Na2 K2 S2 O8,14,-1.8733598600000003,['Na'],['O'],[3],perovskite
ICSD-77381.cif,Pt4 Cs8 Br24,36,-1.0961474358333332,['Pt'],['Br'],"[8, 9, 10, 11]",perovskite
ICSD-77546.cif,Li4 Si4 Sc4 O16,28,-3.006562973690476,"['Li', 'Sc']",['O'],"[0, 1, 2, 3, 4, 5, 6, 7]",perovskite
ICSD-77597.cif,Na3 V3 Se6,12,-0.7993053070833334,"['V', 'Na']",['Se'],"[0, 1, 2, 3, 4, 5]",perovskite
ICSD-77619.cif,Ir6 F18,24,-1.5533027344791666,['Ir'],['F'],"[0, 1, 2, 3, 4, 5]",perovskite
ICSD-77640.cif,Ba8 Bi6 Na2 O24,40,-1.7898772977500002,"['Bi', 'Na']",['O'],"[8, 9, 10, 11, 12, 13, 14, 15]",perovskite
ICSD-77650.cif,Pd4 O4,8,-0.0884220474999999,['Pd'],['O'],"[0, 1, 2, 3, 4, 5, 6, 7]",perovskite
ICSD-77679.cif,Re O3,4,-1.6074419475000008,['Re'],['O'],[0],perovskite
ICSD-77680.cif,Re2 O6,8,-1.6123933800000003,['Re'],['O'],"[0, 1]",perovskite
ICSD-77697.cif,Ti8 O10,18,-2.735663094074074,['Ti'],['O'],"[0, 1, 2, 3, 4, 5, 6, 7]",perovskite
ICSD-77739.cif,Pb8 Sc4 Ta4 O24,40,-2.39057671675,"['Ta', 'Sc']",['O'],"[0, 1, 2, 3, 4, 5, 6, 7]",perovskite
ICSD-77914.cif,Rb Al F4,6,-3.3549020695833334,['Al'],['F'],[1],perovskite
ICSD-77990.cif,Rb3 Ti3 S6,12,-1.4135005716666669,['Ti'],['S'],"[3, 4, 5]",perovskite
ICSD-78012.cif,Fe2 Al2 F10,14,-3.0290792266071427,"['Al', 'Fe']",['F'],"[0, 1, 2, 3]",perovskite
ICSD-78177.cif,Ba4 Y4 Ag4 Se12,24,-1.5642192945833333,['Y'],['Se'],"[4, 5, 6, 7]",perovskite