file_name,formula,atom_num,formation_energy,B_element,X_element,sites,perovskite_judge
ICSD-23764.cif,Pb10 I20,30,-0.690764096,['Pb'],['I'],"[0, 1, 2, 3, 4, 5, 6, 7, 8, 9]",perovskite
ICSD-23771.cif,K8 Pt4 Br24,36,-1.0289340294444445,['Pt'],['Br'],"[8, 9, 10, 11]",perovskite
ICSD-237730.cif,Ba Os O3,5,-1.7012741510000005,['Os'],['O'],[1],perovskite
ICSD-237731.cif,Sr4 Os4 O12,20,-1.7586571995,['Os'],['O'],"[4, 5, 6, 7]",perovskite
ICSD-237732.cif,Ca4 Os4 O12,20,-1.8075685109999995,['Os'],['O'],"[4, 5, 6, 7]",perovskite
ICSD-237748.cif,Y2 Cu6 Fe8 O24,40,-1.530207110125,['Fe'],['O'],"[2, 3, 4, 5, 6, 7, 8, 9]",perovskite
ICSD-237749.cif,Y2 Cu6 Fe8 O24,40,-1.5302076163749994,['Fe'],['O'],"[2, 3, 4, 5, 6, 7, 8, 9]",perovskite
ICSD-237751.cif,Na2 Mn6 V8 O24,40,-1.984168401594828,['V'],['O'],"[8, 9, 10, 11, 12, 13, 14, 15]",perovskite
ICSD-237753.cif,La2 Mn6 V8 O24,40,-2.134310008344828,['V'],['O'],"[8, 9, 10, 11, 12, 13, 14, 15]",perovskite
ICSD-23790.cif,Ta2 S2 C,5,-1.0566903350000003,['C'],['Ta'],[2],anti-perovskite
ICSD-23791.cif,Ta6 S6 C3,15,-1.0563647483333345,['C'],['Ta'],"[6, 7, 8]",anti-perovskite
ICSD-237939.cif,Tl12 I8 S2,22,-0.6243794659090909,['S'],['Tl'],"[12, 13]",anti-perovskite
ICSD-238042.cif,K2 Ir8 O16,26,-1.007817583461539,['Ir'],['O'],"[2, 3, 4, 5, 6, 7, 8, 9]",perovskite
ICSD-238044.cif,Y4 Se8 K4 O24,40,-1.8357729550833344,['Y'],['O'],"[4, 5, 6, 7]",perovskite
ICSD-238045.cif,Y4 Rb4 Se8 O24,40,-1.8287669130833333,['Y'],['O'],"[4, 5, 6, 7]",perovskite
ICSD-238046.cif,Cs4 Y4 Se8 O24,40,-1.8172348688333333,['Y'],['O'],"[4, 5, 6, 7]",perovskite
ICSD-238047.cif,Ca2 Cu6 Fe4 Sb4 O24,40,-1.392402342375,"['Sb', 'Fe']",['O'],"[2, 3, 4, 5, 12, 13, 14, 15]",perovskite
ICSD-238497.cif,Se8 Sc4 Na4 O24,40,-1.7523961060833335,['Sc'],['O'],"[4, 5, 6, 7]",perovskite
ICSD-238498.cif,Rb2 Se4 Sc2 O12,20,-1.778482770833334,['Sc'],['O'],"[2, 3]",perovskite
ICSD-238499.cif,Cs4 Se8 Sc4 O24,40,-1.7800729113333338,['Sc'],['O'],"[4, 5, 6, 7]",perovskite
ICSD-2385.cif,Cd4 Cl12 N4 H16,36,-0.7834626154166666,['Cd'],['Cl'],"[0, 1, 2, 3]",perovskite
ICSD-238758.cif,Fe8 O16 Si4,28,-1.9176156285714288,['Fe'],['O'],"[0, 1, 2, 3, 4, 5, 6, 7]",perovskite
ICSD-238804.cif,Ba8 Y4 Ru4 O24,40,-2.4402724785000003,"['Y', 'Ru']",['O'],"[8, 9, 10, 11, 12, 13, 14, 15]",perovskite
ICSD-23883.cif,Li H F2,4,-2.3415774608333333,['Li'],['F'],[0],perovskite
ICSD-238970.cif,Sr4 Sn4 O12,20,-2.23230980825,['Sn'],['O'],"[4, 5, 6, 7]",perovskite
ICSD-239000.cif,Li8 Ca2 B4 O12,26,-2.486628831794872,['Ca'],['O'],"[8, 9]",perovskite
ICSD-239062.cif,Te8 Ba4 O24,36,-1.5504285417592591,['Te'],['O'],"[4, 5, 6, 7]",perovskite
ICSD-239117.cif,Ba8 Y4 Ir4 O24,40,-2.3726939255,"['Y', 'Ir']",['O'],"[8, 9, 10, 11, 12, 13, 14, 15]",perovskite
ICSD-23924.cif,Li3 Sb3 F18,24,-2.5474106713541667,"['Li', 'Sb']",['F'],"[0, 1, 2, 3, 4, 5]",perovskite
ICSD-239288.cif,Tl4 Pb4 I12,20,-0.6807250997499998,['Pb'],['I'],"[4, 5, 6, 7]",perovskite
ICSD-239318.cif,Na4 Co4 F12,20,-2.45043162825,['Co'],['F'],"[4, 5, 6, 7]",perovskite
ICSD-239324.cif,Fe4 O8 H4,16,-1.4820834187500005,['Fe'],['O'],"[0, 1, 2, 3]",perovskite
ICSD-239358.cif,Sr4 Rh2 O8,14,-2.0333076242857144,['Rh'],['O'],"[4, 5]",perovskite
ICSD-239436.cif,Pb8 Mn4 W4 O24,40,-1.6463924603965523,"['Mn', 'W']",['O'],"[0, 1, 2, 3, 12, 13, 14, 15]",perovskite
ICSD-239438.cif,Pb8 Mn4 W4 O24,40,-1.6463767748965523,"['Mn', 'W']",['O'],"[0, 1, 2, 3, 12, 13, 14, 15]",perovskite
ICSD-23944.cif,Zr2 Cl6,8,-1.8217882246875,['Zr'],['Cl'],"[0, 1]",perovskite
ICSD-239450.cif,Sr4 Os4 O12,20,-1.7731597644999997,['Os'],['O'],"[4, 5, 6, 7]",perovskite
ICSD-23946.cif,Zr2 I6,8,-1.0466993628124994,['Zr'],['I'],"[0, 1]",perovskite
ICSD-239669.cif,Sr6 O18 Cr3 Os3,30,-2.051117021833334,"['Os', 'Cr']",['O'],"[6, 7, 8, 9, 10, 11]",perovskite
ICSD-239693.cif,Na Ta O3,5,-2.706384359,['Ta'],['O'],[1],perovskite
ICSD-239710.cif,Sr8 W4 O20,32,-2.7537035375000007,['W'],['O'],"[8, 9, 10, 11]",perovskite
ICSD-239746.cif,Cu4 Mg4 V4 O16,28,-2.1283622414285714,['Mg'],['O'],"[0, 1, 2, 3]",perovskite
ICSD-239821.cif,Li4 Ge2 Mo6 O16,28,-1.9623745383333344,"['Mo', 'Ge']",['O'],"[4, 5, 6, 7, 8, 9, 10, 11]",perovskite
ICSD-239874.cif,Cs8 Bi4 Ag4 Cl24,40,-1.3633939632500005,"['Ag', 'Bi']",['Cl'],"[8, 9, 10, 11, 12, 13, 14, 15]",perovskite
ICSD-239945.cif,Mn8 La4 Sb4 O24,40,-1.8809123057931032,['Mn'],['O'],"[8, 9, 10, 11]",perovskite
ICSD-24014.cif,Ni4 O4,8,-0.7793602600000002,['Ni'],['O'],"[0, 1, 2, 3, 4, 5, 6, 7]",perovskite
ICSD-24021.cif,Mn4 Te8,12,-0.07730461493295,['Mn'],['Te'],"[0, 1, 2, 3]",perovskite
ICSD-240292.cif,Cs4 Cu4 Al4 F24,36,-2.755337115,['Al'],['F'],"[4, 5, 6, 7]",perovskite
ICSD-24035.cif,Co6 B4 O12,22,-1.8796364818181817,['Co'],['O'],"[0, 1]",perovskite
ICSD-24036.cif,Mg6 B4 O12,22,-2.6811437636363635,['Mg'],['O'],"[0, 1, 2, 3, 4, 5]",perovskite
ICSD-240402.cif,Fe6 F18,24,-2.2599345857291664,['Fe'],['F'],"[0, 1, 2, 3, 4, 5]",perovskite
ICSD-24060.cif,Re4 O8,12,-1.4834913824999998,['Re'],['O'],"[0, 1, 2, 3]",perovskite
ICSD-240699.cif,La6 I6 Te3,15,-1.4805224634999996,['La'],"['I', 'Te']","[0, 1, 2, 3, 4, 5, 6, 7, 8]",perovskite
ICSD-240711.cif,Cs8 Ta4 Cl24,36,-1.6771304133333331,['Ta'],['Cl'],"[8, 9, 10, 11]",perovskite
ICSD-24085.cif,Sb4 P4 O4 Cl32,44,-0.8739002974783548,['Sb'],"['Cl', 'O']","[0, 1, 2, 3]",perovskite
ICSD-240868.cif,Sr2 Te6 O16,24,-1.4330577454166662,['Te'],['O'],"[6, 7]",perovskite
ICSD-24086.cif,Nb4 P4 O4 Cl32,44,-1.2402869536147187,['Nb'],"['Cl', 'O']","[0, 1, 2, 3]",perovskite
ICSD-240876.cif,Cs12 Zn4 Cl20,36,-1.7694032470833334,['Cl'],['Cs'],"[16, 17, 18, 19]",anti-perovskite
ICSD-240899.cif,I3 Sr6 N3,12,-1.1020627178125004,['N'],['Sr'],"[9, 10, 11]",anti-perovskite
ICSD-240905.cif,La8 In4 Cu4 Se20,36,-1.2957350275925927,['In'],['Se'],"[8, 9, 10, 11]",perovskite
ICSD-24093.cif,In2 O4 H2,8,-1.3949139056250006,['In'],['O'],"[0, 1]",perovskite
ICSD-240955.cif,Ir Rb2 F6,9,-2.2384538441666666,['Ir'],['F'],[2],perovskite
ICSD-240956.cif,Ir Cs2 F6,9,-2.2511534225,['Ir'],['F'],[2],perovskite
ICSD-240981.cif,Ir3 F18 Ba3,24,-2.4926660765625,['Ir'],['F'],"[3, 4, 5]",perovskite
ICSD-24129.cif,Ba2 Mn2 O6,10,-2.1782341817931035,['Mn'],['O'],"[2, 3]",perovskite
ICSD-241336.cif,Cu2 Ca S2,5,-1.122880891,['Ca'],['S'],[0],perovskite
ICSD-241352.cif,Na8 Mn8 O16,32,-1.599890530678879,"['Na', 'Mn']",['O'],"[0, 1, 2, 3, 4, 5, 6, 7, 8, 9, 10, 11, 12, 13, 14, 15]",perovskite
ICSD-241471.cif,Ba2 La4 In4 S14,24,-1.6658574216666668,['S'],"['In', 'La']","[22, 23]",anti-perovskite
ICSD-241472.cif,Ba2 La4 In4 Se14,24,-1.4148959609722225,['Se'],"['In', 'La']","[22, 23]",anti-perovskite
ICSD-241509.cif,La6 Mn2 Se14 Ga2,24,-1.4405992782818486,['Mn'],['Se'],"[6, 7]",perovskite
ICSD-241688.cif,Mg4 O4,8,-2.73915348375,['Mg'],['O'],"[0, 1, 2, 3, 4, 5, 6, 7]",perovskite
ICSD-24187.cif,Os4 S8,12,-0.6815895491666666,['Os'],['S'],"[0, 1, 2, 3]",perovskite
ICSD-24202.cif,Os4 Se8,12,-0.3174612336111113,['Os'],['Se'],"[0, 1, 2, 3]",perovskite
ICSD-242114.cif,Ag3 Fe3 O6,12,-1.1300415225000002,['Fe'],['O'],"[0, 1, 2]",perovskite
ICSD-242174.cif,Zn6 Br6 K3 O9 B3,27,-1.7643354584259263,['K'],['Br'],"[0, 1, 2]",perovskite
ICSD-242176.cif,Zn6 Cl6 Rb3 O9 B3,27,-1.8555289040740743,['Rb'],['Cl'],"[0, 1, 2]",perovskite
ICSD-24251.cif,Mn4 Se4,8,-0.007724445316092,['Mn'],['Se'],"[0, 1, 2, 3, 4, 5, 6, 7]",perovskite
ICSD-24263.cif,Pb2 I4,6,-0.6909402300000002,['Pb'],['I'],"[0, 1]",perovskite
ICSD-24264.cif,Pb3 I6,9,-0.6908792794444444,['Pb'],['I'],"[0, 1, 2]",perovskite
ICSD-24266.cif,Pb6 I12,18,-0.6907572077777778,['Pb'],['I'],"[0, 1, 2, 3, 4, 5]",perovskite
ICSD-24305.cif,Co2 Rb2 Cl6,10,-1.4068095297499998,['Co'],['Cl'],"[2, 3]",perovskite
ICSD-24313.cif,Ta Se2,3,-0.8171369311111114,['Ta'],['Se'],[0],perovskite
ICSD-24318.cif,Ta6 Se12,18,-0.8281931972222221,['Ta'],['Se'],"[3, 4, 5]",perovskite
ICSD-243460.cif,Sb8 Mn4 O16,28,-1.378430183423646,['Mn'],['O'],"[0, 1, 2, 3]",perovskite
ICSD-243530.cif,Ag4 K8 F16,28,-2.1015927939285715,['Ag'],['F'],"[8, 9, 10, 11]",perovskite
ICSD-243531.cif,Ag8 K12 F28,48,-2.009017444270833,['Ag'],['F'],"[12, 13, 14, 15, 16, 17, 18, 19]",perovskite
ICSD-243549.cif,Mo12 O24,36,-1.985085646944445,['Mo'],['O'],"[0, 1, 2, 3, 4, 5, 6, 7, 8, 9, 10, 11]",perovskite
ICSD-243675.cif,Sn4 S16 Mg8,28,-1.1278337726785712,['Mg'],['S'],"[0, 1, 2, 3, 4, 5, 6, 7]",perovskite
ICSD-243728.cif,Ba2 Fe8 O14,24,-1.85271906875,['Fe'],['O'],"[6, 7, 8, 9]",perovskite
ICSD-243749.cif,Cs8 Pd4 Br24,36,-1.0340864202777778,['Pd'],['Br'],"[8, 9, 10, 11]",perovskite
ICSD-243794.cif,Ba8 Zn4 W4 O24,40,-2.463459952,"['Zn', 'W']",['O'],"[8, 9, 10, 11, 12, 13, 14, 15]",perovskite
ICSD-243853.cif,Tl20 I4 Te8,32,-0.4062320118229165,['Tl'],"['I', 'Te']","[16, 17, 18, 19]",perovskite
ICSD-243883.cif,Ba4 Au8 S8,20,-1.074881301,['Ba'],['S'],"[0, 1, 2, 3]",perovskite
ICSD-24390.cif,Ba6 Sr2 Nb4 O18,30,-2.9492790510000013,['Sr'],['O'],"[6, 7]",perovskite
ICSD-24391.cif,Ba6 Sr2 Ta4 O18,30,-3.0097080593333336,['Sr'],['O'],"[6, 7]",perovskite
ICSD-243970.cif,Co Sb2 O6,9,-1.3248999483333337,"['Sb', 'Co']",['O'],"[0, 1, 2]",perovskite
ICSD-2439.cif,Pb4 Zr4 S12,20,-1.3668943324999994,['Zr'],['S'],"[0, 1, 2, 3]",perovskite
ICSD-243.cif,Cu4 Se8,12,-0.0919299769444445,['Cu'],['Se'],"[0, 1, 2, 3]",perovskite
ICSD-2441.cif,Sb2 Cl12 S4 N2,20,-0.4067348600000002,['Sb'],['Cl'],"[0, 1]",perovskite
ICSD-244229.cif,Rb3 Sc3 S6,12,-1.8785980075,['Sc'],['S'],"[3, 4, 5]",perovskite
ICSD-244230.cif,K3 Sc3 S6,12,-1.9207642570833336,['Sc'],['S'],"[3, 4, 5]",perovskite
ICSD-244295.cif,Pb Ti O3,5,-2.311824442833334,['Ti'],['O'],[0],perovskite
ICSD-24435.cif,Ba3 Mg3 C6 O18,30,-2.1627054431666672,['Mg'],['O'],"[3, 4, 5]",perovskite
ICSD-24446.cif,K4 Zr2 Si6 O18,30,-2.873060843666667,['Zr'],['O'],"[4, 5]",perovskite
ICSD-244674.cif,Cs8 Ag4 Sb4 Cl24,40,-1.3121725897500007,"['Ag', 'Sb']",['Cl'],"[8, 9, 10, 11, 12, 13, 14, 15]",perovskite
ICSD-24467.cif,Zn6 Mn6 O18,30,-1.3765954927931043,['Mn'],['O'],"[0, 1, 2, 3, 4, 5]",perovskite
ICSD-244687.cif,K6 Cd3 Se6 O18,33,-1.2952569316666676,['Cd'],['O'],"[6, 7, 8]",perovskite
ICSD-244688.cif,Cd3 Rb6 Se6 O18,33,-1.2894659716666677,['Cd'],['O'],"[6, 7, 8]",perovskite
ICSD-244689.cif,Cs6 Cd3 Se6 O18,33,-1.2844808460606068,['Cd'],['O'],"[6, 7, 8]",perovskite
ICSD-24477.cif,Ti3 Na6 F18,27,-3.1868548887962977,"['Ti', 'Na']",['F'],"[0, 1, 2, 3, 4, 5, 6, 7, 8]",perovskite
ICSD-24478.cif,Fe12 B4 O20,36,-2.0175410638888898,['Fe'],['O'],"[0, 1, 2, 3, 4, 5, 6, 7, 8, 9, 10, 11]",perovskite
ICSD-24479.cif,Cs Hg Br3,5,-1.0037050884999998,['Hg'],['Br'],[1],perovskite
ICSD-24482.cif,Cs Hg Cl3,5,-1.16405192825,['Hg'],['Cl'],[1],perovskite
ICSD-24483.cif,Cs Cd Br3,5,-1.2551207915,['Cd'],['Br'],[1],perovskite
ICSD-24484.cif,Cs Cd Cl3,5,-1.47692308725,['Cd'],['Cl'],[1],perovskite
ICSD-24515.cif,Cs8 Au8 Cl24,40,-0.98399410775,['Au'],['Cl'],"[8, 9, 10, 11, 12, 13, 14, 15]",perovskite
ICSD-24516.cif,Cs8 Ag4 Au4 Cl24,40,-1.039707794,"['Ag', 'Au']",['Cl'],"[8, 9, 10, 11, 12, 13, 14, 15]",perovskite
ICSD-245182.cif,Li4 Fe4 As4 O16,28,-1.6783815501190478,"['Li', 'Fe']",['O'],"[0, 1, 2, 3, 4, 5, 6, 7]",perovskite
ICSD-245183.cif,Li4 Co4 As4 O16,28,-1.5671617508333335,['Li'],['O'],"[0, 1, 2, 3]",perovskite
ICSD-245251.cif,Ba6 Mg2 Ir4 O18,30,-1.9370423616666668,"['Mg', 'Ir']",['O'],"[6, 7, 8, 9, 10, 11]",perovskite
ICSD-245292.cif,Ag6 Sb6 O18,30,-1.047928987,['Sb'],['O'],"[6, 7, 8, 9, 10, 11]",perovskite
ICSD-245319.cif,Co4 O4,8,-1.43014186375,['Co'],['O'],"[0, 1, 2, 3, 4, 5, 6, 7]",perovskite
ICSD-245354.cif,Cs8 Na4 Y4 Cl24,40,-2.156710626,"['Na', 'Y']",['Cl'],"[8, 9, 10, 11, 12, 13, 14, 15]",perovskite
ICSD-245470.cif,Sr4 Co2 W2 O12,20,-2.5100446925,"['Co', 'W']",['O'],"[4, 5, 6, 7]",perovskite
ICSD-245595.cif,Sr4 Cr2 O8,14,-2.477758882142858,['Cr'],['O'],"[4, 5]",perovskite
ICSD-245604.cif,Pb4 Ba4 O12,20,-1.6963470585000002,['Pb'],['O'],"[4, 5, 6, 7]",perovskite
ICSD-245665.cif,Rb Fe Mo2 O8,12,-1.9770205929166664,['Fe'],['O'],[1],perovskite
ICSD-245666.cif,Rb Fe Mo2 O8,12,-1.9771744154166675,['Fe'],['O'],[1],perovskite
ICSD-245667.cif,Cs Fe S2 O8,12,-1.6227579989583336,"['Cs', 'Fe']",['O'],"[0, 1]",perovskite
ICSD-245668.cif,Ba10 Ru4 O18 Br4,36,-2.053457284444445,['Ru'],['O'],"[10, 11, 12, 13]",perovskite
ICSD-245684.cif,W2 Cd2 Sr4 O12,20,-2.4106334985,"['Cd', 'W']",['O'],"[4, 5, 6, 7]",perovskite
ICSD-245715.cif,Ca4 Co8 O16,28,-2.2686297257142862,['Co'],['O'],"[4, 5, 6, 7, 8, 9, 10, 11]",perovskite
ICSD-245747.cif,Nb4 Rb8 Cl24,36,-1.6422317694444446,['Nb'],['Cl'],"[8, 9, 10, 11]",perovskite
ICSD-245748.cif,Nb2 Rb4 Cl12,18,-1.6421285119444444,['Nb'],['Cl'],"[4, 5]",perovskite
ICSD-245749.cif,Nb2 K4 Cl12,18,-1.6164980802777782,['Nb'],['Cl'],"[4, 5]",perovskite
ICSD-245819.cif,Sr4 Cu2 Os2 O12,20,-1.73345434875,['Os'],['O'],"[6, 7]",perovskite
ICSD-245925.cif,Y2 K6 O12 B4,24,-2.5192690054166675,['Y'],['O'],"[6, 7]",perovskite
ICSD-245943.cif,Zn6 Sn6 O18,30,-1.52735325175,['Sn'],['O'],"[6, 7, 8, 9, 10, 11]",perovskite
ICSD-246082.cif,Ca4 Mo4 O12,20,-2.3912461844999995,['Mo'],['O'],"[4, 5, 6, 7]",perovskite
ICSD-246109.cif,Ba2 Sr Te O6,10,-2.3288189936666672,"['Te', 'Sr']",['O'],"[2, 3]",perovskite
ICSD-246111.cif,Ba8 Ca4 W4 O24,40,-2.83974144,"['W', 'Ca']",['O'],"[8, 9, 10, 11, 12, 13, 14, 15]",perovskite
ICSD-246115.cif,Ba2 Sr W O6,10,-2.7756813629999995,"['W', 'Sr']",['O'],"[2, 3]",perovskite
ICSD-246116.cif,Ba4 Ca2 W2 O12,20,-2.8420176070000016,"['W', 'Ca']",['O'],"[4, 5, 6, 7]",perovskite
ICSD-246157.cif,Ag2 Co2 O4,8,-1.3611855987500006,['Co'],['O'],"[0, 1]",perovskite
ICSD-246417.cif,Ca2 Cl4,6,-2.4024455925,['Ca'],['Cl'],"[0, 1]",perovskite
ICSD-246458.cif,La Ba Mn2 O6,10,-2.316428586293104,['Mn'],['O'],"[2, 3]",perovskite
ICSD-246483.cif,Co2 Sr4 O8,14,-2.2432953971428566,['Co'],['O'],"[4, 5]",perovskite
ICSD-246546.cif,Fe4 Mo4 Ba8 O24,40,-2.4618333057500013,"['Mo', 'Fe']",['O'],"[8, 9, 10, 11, 12, 13, 14, 15]",perovskite
ICSD-246693.cif,Cd4 Te4,8,-0.2748902558333333,['Cd'],['Te'],"[0, 1, 2, 3, 4, 5, 6, 7]",perovskite
ICSD-246730.cif,Sr4 Li2 Re2 O12,20,-2.361316943333334,"['Li', 'Re']",['O'],"[4, 5, 6, 7]",perovskite
ICSD-24677.cif,Na4 K8 Cl4 S8 O24,48,-1.7527198828125,['Na'],"['Cl', 'O']","[8, 9, 10, 11, 20, 21, 22, 23]",perovskite
ICSD-246857.cif,Fe4 Li4 P4 O16,28,-2.223509478656464,['Fe'],['O'],"[4, 5, 6, 7]",perovskite
ICSD-246919.cif,K4 Mn4 F12,20,-2.455571596543104,['Mn'],['F'],"[4, 5, 6, 7]",perovskite
ICSD-247122.cif,Fe8 Zr8 O24,40,-2.4635251917500005,['Zr'],['O'],"[0, 1, 2, 3, 4, 5, 6, 7]",perovskite
ICSD-247168.cif,Ba2 La Ir O6,10,-2.2347622165000005,"['Ir', 'La']",['O'],"[2, 3]",perovskite
ICSD-247170.cif,Ba8 La4 Ir4 O24,40,-2.2322722852500005,"['Ir', 'La']",['O'],"[8, 9, 10, 11, 12, 13, 14, 15]",perovskite
ICSD-247275.cif,In2 Zn8 Ga2 O14,26,-1.5524281406730769,['In'],['O'],"[8, 9]",perovskite
ICSD-247315.cif,Nb4 Na4 O12,20,-2.5953318005000003,['Nb'],['O'],"[4, 5, 6, 7]",perovskite
ICSD-247457.cif,Sr4 Y2 Ta2 O12,20,-3.219961236,"['Ta', 'Y']",['O'],"[4, 5, 6, 7]",perovskite
ICSD-247458.cif,Sr8 Y4 Ta4 O24,40,-3.1722196130000007,"['Ta', 'Y']",['O'],"[8, 9, 10, 11, 12, 13, 14, 15]",perovskite
ICSD-247467.cif,Bi4 Co4 O12,20,-1.4968649035000006,['Co'],['O'],"[0, 1, 2, 3]",perovskite
ICSD-24755.cif,Nb S2,3,-1.2351999216666665,['Nb'],['S'],[0],perovskite
ICSD-24757.cif,Ta6 S12,18,-1.240351206666667,['Ta'],['S'],"[0, 1, 2, 3, 4, 5]",perovskite
ICSD-247622.cif,Cs3 F6 O9 Be6 B3,27,-2.855900676388889,['Cs'],['F'],"[0, 1, 2]",perovskite
ICSD-247732.cif,Nb8 Ag8 O24,40,-1.9672776442500008,['Nb'],['O'],"[0, 1, 2, 3, 4, 5, 6, 7]",perovskite
ICSD-247812.cif,Co2 Ta4 O12,18,-2.6204656622222218,"['Ta', 'Co']",['O'],"[0, 1, 2, 3, 4, 5]",perovskite
ICSD-247845.cif,Ba Ca2 Mg Si2 O8,14,-3.005498525357144,['Mg'],['O'],[3],perovskite
ICSD-24792.cif,Cr2 Se2,4,-0.1252226808333336,['Cr'],['Se'],"[0, 1]",perovskite
ICSD-24794.cif,Cr4 Te2 O12,18,-1.474512521851852,"['Te', 'Cr']",['O'],"[0, 1, 2, 3, 4, 5]",perovskite
ICSD-248025.cif,Cd2 Zn4 K2 F2 B4 O12,26,-2.0111807533653847,['Cd'],['O'],"[6, 7]",perovskite
ICSD-248051.cif,Pd12 K6 O18,36,-0.922526283611112,['Pd'],['O'],"[15, 16, 17]",perovskite
ICSD-248063.cif,Ta2 K6 F16,24,-3.1591744441666667,['F'],['K'],"[8, 9]",anti-perovskite
ICSD-248082.cif,Mn4 Mo6 O16,26,-1.8377173598408496,"['Mo', 'Mn']",['O'],"[2, 3, 4, 5, 6, 7, 8, 9]",perovskite
ICSD-248085.cif,In6 K10 F28,44,-2.717461932386364,['In'],['F'],"[10, 11, 12, 13, 14, 15]",perovskite
ICSD-248088.cif,Al4 Na4 F16,24,-3.3322442387500004,['Al'],['F'],"[4, 5, 6, 7]",perovskite
ICSD-248230.cif,Ca2 Cu6 Pt8 O24,40,-0.8015308843749999,['Pt'],['O'],"[8, 9, 10, 11, 12, 13, 14, 15]",perovskite
ICSD-248245.cif,Bi4 Ga8 O18,30,-1.659611422333334,['Ga'],['O'],"[0, 1, 2, 3]",perovskite
ICSD-24834.cif,Ti F6 N2 H8,17,-1.6988309937745096,['Ti'],['F'],[0],perovskite
ICSD-248351.cif,Sr Ru2 O6,9,-1.5147535566666666,"['Ru', 'Sr']",['O'],"[0, 1, 2]",perovskite
ICSD-248378.cif,Ba4 Ir4 O12,20,-1.5585227395000003,['Ir'],['O'],"[4, 5, 6, 7]",perovskite
ICSD-24853.cif,Zr4 P8 O28,40,-2.71307912220238,['Zr'],['O'],"[0, 1, 2, 3]",perovskite
ICSD-24859.cif,Rb In W2 O8,12,-2.0751789350000003,['In'],['O'],[1],perovskite
ICSD-248603.cif,La2 Cu6 Cr8 O24,40,-1.6409720816250009,['Cr'],['O'],"[2, 3, 4, 5, 6, 7, 8, 9]",perovskite
ICSD-248614.cif,Y2 Cu6 Cr8 O24,40,-1.6643382306250003,['Cr'],['O'],"[2, 3, 4, 5, 6, 7, 8, 9]",perovskite
ICSD-248725.cif,Pt2 F12 Li4,18,-2.197602826574074,"['Li', 'Pt']",['F'],"[0, 1, 2, 3, 4, 5]",perovskite
ICSD-24885.cif,Fe4 O8 H4,16,-1.4081311943750006,['Fe'],['O'],"[0, 1, 2, 3]",perovskite
ICSD-248973.cif,Sr Si O3,5,-2.71773772,['Si'],['O'],[1],perovskite
ICSD-24921.cif,Cs8 Na4 In4 F24,40,-2.7558006855,"['In', 'Na']",['F'],"[8, 9, 10, 11, 12, 13, 14, 15]",perovskite
ICSD-249742.cif,Ba6 Na2 Nb2 P2 O17,29,-2.8063923248111657,['Na'],['O'],"[6, 7]",perovskite
ICSD-25000.cif,Li4 Ni2 O4,10,-1.7911798203333331,['O'],"['Li', 'Ni']","[6, 7, 8, 9]",anti-perovskite
ICSD-250103.cif,K4 Sr2 V8 O24,38,-2.523171428684212,['K'],['O'],"[0, 1, 2, 3]",perovskite
ICSD-25011.cif,Fe3 Sn3 F18,24,-2.48681219140625,"['Sn', 'Fe']",['F'],"[0, 1, 2, 3, 4, 5]",perovskite
ICSD-250124.cif,Ba3 Ga2 Ge4 O14,23,-2.1126407144565214,['Ge'],['O'],[5],perovskite
ICSD-25012.cif,Zn3 Sn3 F18,24,-2.4164278761979165,"['Sn', 'Zn']",['F'],"[0, 1, 2, 3, 4, 5]",perovskite
ICSD-25014.cif,Co3 Sn3 F18,24,-2.3725896055729163,"['Sn', 'Co']",['F'],"[0, 1, 2, 3, 4, 5]",perovskite
ICSD-25015.cif,Ni3 Sn3 F18,24,-2.110472351614584,"['Sn', 'Ni']",['F'],"[0, 1, 2, 3, 4, 5]",perovskite
ICSD-25016.cif,Cu3 Sn3 F18,24,-2.053650468802083,['Sn'],['F'],"[3, 4, 5]",perovskite
ICSD-25017.cif,Cd3 Sn3 F18,24,-2.38504961515625,"['Sn', 'Cd']",['F'],"[0, 1, 2, 3, 4, 5]",perovskite
ICSD-250250.cif,Pb3 Sb6 Te12,21,-0.2015712996428572,"['Pb', 'Sb']",['Te'],"[0, 1, 2, 3, 4, 5, 12, 13, 14, 15, 16, 17, 18, 19, 20]",perovskite
ICSD-250340.cif,Tl Sc Mo2 O8,12,-2.2932968091666663,['Sc'],['O'],[0],perovskite
ICSD-250413.cif,Bi4 Ga8 O18,30,-1.6596213430000006,['Ga'],['O'],"[0, 1, 2, 3]",perovskite
ICSD-250594.cif,Nb S2,3,-1.2354524616666671,['Nb'],['S'],[0],perovskite
ICSD-250766.cif,Y4 V4 O12,20,-2.947711221,['V'],['O'],"[4, 5, 6, 7]",perovskite
ICSD-250819.cif,Sr4 Ni2 Ir2 O12,20,-1.7125864255000005,['Ir'],['O'],"[6, 7]",perovskite
ICSD-250820.cif,Sr8 Ni4 Ir4 O24,40,-1.6210926100000005,"['Ir', 'Ni']",['O'],"[8, 9, 10, 11, 12, 13, 14, 15]",perovskite
ICSD-250869.cif,Se8 Ga4 Na4 O24,40,-1.2604056234583332,['Ga'],['O'],"[4, 5, 6, 7]",perovskite
ICSD-250870.cif,Se8 Ga4 K4 O24,40,-1.2992214732083334,['Ga'],['O'],"[4, 5, 6, 7]",perovskite
ICSD-250906.cif,Ca2 Cu6 V8 O24,40,-2.0105235246250004,['V'],['O'],"[2, 3, 4, 5, 6, 7, 8, 9]",perovskite
ICSD-250912.cif,Ca2 Mn6 V8 O24,40,-2.0907803040948267,['V'],['O'],"[8, 9, 10, 11, 12, 13, 14, 15]",perovskite
ICSD-251041.cif,Li2 Pt O6 H6,15,-1.1936436291111108,"['Li', 'Pt']",['O'],"[0, 1, 8]",perovskite
ICSD-251042.cif,Na2 Pt O6 H6,15,-1.1524370593333326,['Pt'],['O'],[8],perovskite
ICSD-251068.cif,Sr8 Fe4 Os4 O24,40,-2.000872576250001,"['Fe', 'Os']",['O'],"[8, 9, 10, 11, 12, 13, 14, 15]",perovskite
ICSD-251074.cif,Hf Li2 F6,9,-3.515888165462963,"['Li', 'Hf']",['F'],"[0, 1, 2]",perovskite