file_name,formula,atom_num,formation_energy,B_element,X_element,sites,perovskite_judge
ICSD-78273.cif,Cu4 Cl4,8,-0.4166790593749998,['Cu'],['Cl'],"[0, 1, 2, 3, 4, 5, 6, 7]",perovskite
ICSD-78280.cif,Cu4 Br4,8,-0.2697682425000001,['Cu'],['Br'],"[0, 1, 2, 3, 4, 5, 6, 7]",perovskite
ICSD-78346.cif,Te2 Ga4 O12,18,-1.4722348999074073,"['Ga', 'Te']",['O'],"[0, 1, 2, 3, 4, 5]",perovskite
ICSD-78416.cif,Na6 Sb6 O18,30,-1.6562506516666673,['Sb'],['O'],"[6, 7, 8, 9, 10, 11]",perovskite
ICSD-78487.cif,Na4 La4 Ti6 O20,34,-3.0077228814705883,['Ti'],['O'],"[8, 9]",perovskite
ICSD-78627.cif,Sr4 Ru4 O12,20,-1.854956966,['Ru'],['O'],"[4, 5, 6, 7]",perovskite
ICSD-78677.cif,W2 Fe2 Sr4 O12,20,-2.6079816655,"['Fe', 'W']",['O'],"[4, 5, 6, 7]",perovskite
ICSD-78678.cif,W4 Fe4 Sr8 O24,40,-2.6079735590000004,"['Fe', 'W']",['O'],"[8, 9, 10, 11, 12, 13, 14, 15]",perovskite
ICSD-78687.cif,Li3 Ni3 O6,12,-1.3897601525000003,"['Li', 'Ni']",['O'],"[0, 1, 2, 3, 4, 5, 6, 7, 8, 9, 10, 11]",perovskite
ICSD-78698.cif,Ni3 O6,9,-0.9069416966666668,['Ni'],['O'],"[0, 1, 2]",perovskite
ICSD-78719.cif,Ag2 La2 Ti2 O8,14,-2.5529875009523813,['O'],"['Ti', 'La']","[10, 11]",anti-perovskite
ICSD-78748.cif,Li2 Pd2 Ga2 F12,18,-2.2373524799537043,['Ga'],['F'],"[2, 3]",perovskite
ICSD-78749.cif,Rb4 Pd4 Al4 F24,36,-2.642379271388889,['Al'],['F'],"[4, 5, 6, 7]",perovskite
ICSD-78777.cif,Cs4 Pd8 F20,32,-1.6940582979687495,['Pd'],['F'],"[4, 5, 6, 7]",perovskite
ICSD-78784.cif,Tl2 Pt4 S6,12,-0.6583719841666665,['Pt'],['S'],[2],perovskite
ICSD-78786.cif,Tl2 Pd4 Se6,12,-0.4350939916666665,['Pd'],['Se'],[2],perovskite
ICSD-78787.cif,Tl2 Pt4 Te6,12,-0.4847105416666668,['Pt'],['Te'],[8],perovskite
ICSD-78788.cif,Pt8 Se12 Na4,24,-0.6643766299999996,['Pt'],['Se'],"[4, 5]",perovskite
ICSD-78836.cif,N2 Br4 Li10,16,-1.0099048648958338,['N'],['Li'],"[14, 15]",anti-perovskite
ICSD-78841.cif,K12 Bi4 Se12,28,-0.96389467,['K'],['Se'],"[4, 5, 6, 7]",perovskite
ICSD-78891.cif,K12 O4 Cl4,20,-1.4096034647500002,['O'],['K'],"[16, 17, 18, 19]",anti-perovskite
ICSD-78894.cif,Sn2 F8,10,-2.3583755987500004,['Sn'],['F'],"[0, 1]",perovskite
ICSD-78895.cif,Pb2 F8,10,-1.8392285805,['Pb'],['F'],"[0, 1]",perovskite
ICSD-78905.cif,Ni3 Pt3 F18,24,-1.4943877238541667,"['Pt', 'Ni']",['F'],"[0, 1, 2, 3, 4, 5]",perovskite
ICSD-78906.cif,Cd3 Pt3 F18,24,-1.7465483107291668,"['Pt', 'Cd']",['F'],"[0, 1, 2, 3, 4, 5]",perovskite
ICSD-78955.cif,Pt4 Cs8 F24,36,-2.242657803055556,['Pt'],['F'],"[8, 9, 10, 11]",perovskite
ICSD-79086.cif,K3 Au O,5,-0.7850607100000001,['O'],['K'],[4],anti-perovskite
ICSD-79087.cif,Rb3 Au O,5,-0.7088581829999999,['O'],['Rb'],[4],anti-perovskite
ICSD-79088.cif,Cs6 Au2 O2,10,-0.7826102715000001,['O'],['Cs'],"[8, 9]",anti-perovskite
ICSD-79198.cif,Mg O2 H2,5,-1.756153991,['Mg'],['O'],[0],perovskite
ICSD-79224.cif,K12 Fe8 S16,36,-1.0985113663888886,['K'],['S'],"[8, 9, 10, 11]",perovskite
ICSD-79251.cif,Hf8 Ag16 S24,48,-0.982416292916667,['Hf'],['S'],"[0, 1, 2, 3, 4, 5, 6, 7]",perovskite
ICSD-79353.cif,Fe4 Ti8 Ca4 O24,40,-2.748027700333333,['Ti'],['O'],"[4, 5, 6, 7, 8, 9, 10, 11]",perovskite
ICSD-79355.cif,Sr2 Nb8 O12,22,-2.480215009999999,['Nb'],['O'],[9],perovskite
ICSD-79362.cif,Bi2 Te2 Cl2,6,-0.6033182759722227,['Bi'],"['Cl', 'Te']","[0, 1]",perovskite
ICSD-79364.cif,Bi Te I,3,-0.3820164968055557,['Bi'],"['I', 'Te']",[0],perovskite
ICSD-79406.cif,Na4 Sn8 Cl20,32,-1.2151568992187496,['Na'],['Cl'],"[0, 1, 2, 3]",perovskite
ICSD-79481.cif,La12 Nb4 O28,44,-3.267569423409092,['Nb'],['O'],"[12, 13, 14, 15]",perovskite
ICSD-79512.cif,In4 Cd4 Br12,20,-0.8042938885000002,['Cd'],['Br'],"[0, 1, 2, 3]",perovskite
ICSD-79543.cif,In2 Te8 K12 Cl2,24,-1.1262720664930554,['Cl'],['K'],"[22, 23]",anti-perovskite
ICSD-79593.cif,Bi Cs2 S6 Na N6 C6,22,-0.2358293600000006,"['Bi', 'Na']","['N', 'S']","[2, 3]",perovskite
ICSD-79629.cif,Ti6 Se8,14,-1.223241395238096,['Ti'],['Se'],"[0, 1, 2, 3, 4, 5]",perovskite
ICSD-79667.cif,Ag5 Pb2 O6,13,-0.5178465215384619,['Pb'],['O'],"[5, 6]",perovskite
ICSD-79672.cif,Mg4 Al8 S16,28,-1.3560195092857137,"['Al', 'Mg']",['S'],"[0, 1, 2, 3, 8, 9, 10, 11]",perovskite
ICSD-79676.cif,Mn4 Sb8 S16,28,-0.4772848262807885,['Mn'],['S'],"[0, 1, 2, 3]",perovskite
ICSD-79681.cif,V8 P4 O20,32,-2.114867128407738,['V'],['O'],"[0, 1, 2, 3, 4, 5, 6, 7]",perovskite
ICSD-79704.cif,Sr2 Ta8 O22,32,-3.0370006512500005,['Ta'],['O'],"[2, 3]",perovskite
ICSD-79810.cif,Ba6 Ta10 O30,46,-3.045897348913044,['Ta'],['O'],"[6, 7, 8, 9, 10, 11, 12, 13, 14, 15]",perovskite
ICSD-79816.cif,Al10 F30,40,-3.5442946376875,['Al'],['F'],"[0, 1, 2, 3, 4, 5, 6, 7, 8, 9]",perovskite
ICSD-79880.cif,Ag4 Ir4 F28,36,-1.3523886731944446,['Ir'],['F'],"[4, 5, 6, 7]",perovskite
ICSD-79976.cif,Ba2 Nb16 O28,46,-2.6180160030434787,['Nb'],['O'],"[14, 15, 16, 17]",perovskite
ICSD-8003.cif,Bi8 Tl16 S20,44,-0.5234175738636363,['S'],"['Bi', 'Tl']","[40, 41, 42, 43]",anti-perovskite
ICSD-80067.cif,Ba2 Si8 O18,28,-2.8591750703571432,['Si'],['O'],"[2, 3]",perovskite
ICSD-8007.cif,Ti8 K8 F32,48,-3.1951404144444435,['Ti'],['F'],"[8, 9, 10, 11, 12, 13, 14, 15]",perovskite
ICSD-8009.cif,Tl4 Cd4 I12,20,-0.6232132702500002,['Cd'],['I'],"[4, 5, 6, 7]",perovskite
ICSD-80320.cif,Cs Ge Br3,5,-1.1282983424999995,['Ge'],['Br'],[1],perovskite
ICSD-80349.cif,Ni As2 O6,9,-1.0122295322222223,"['As', 'Ni']",['O'],"[0, 1, 2]",perovskite
ICSD-80350.cif,Co As2 O6,9,-1.2082744750000007,"['As', 'Co']",['O'],"[0, 1, 2]",perovskite
ICSD-80351.cif,Mn As2 O6,9,-1.2476915165517246,"['As', 'Mn']",['O'],"[0, 1, 2]",perovskite
ICSD-80455.cif,Mg4 Ca4 Ge4 O16,28,-2.4920213207142856,"['Mg', 'Ca']",['O'],"[0, 1, 2, 3, 4, 5, 6, 7]",perovskite
ICSD-80469.cif,In2 Fe2 O6,10,-1.4452405599999998,['In'],['O'],"[0, 1]",perovskite
ICSD-80556.cif,Fe8 P4 O20,32,-2.0128874496577387,['Fe'],['O'],"[0, 1, 2, 3, 4, 5, 6, 7]",perovskite
ICSD-80568.cif,Ir8 S16,24,-0.6855965479166665,['Ir'],['S'],"[0, 1, 2, 3, 4, 5, 6, 7]",perovskite
ICSD-80569.cif,Ir8 Se16,24,-0.4341876081944444,['Ir'],['Se'],"[0, 1, 2, 3, 4, 5, 6, 7]",perovskite
ICSD-80606.cif,Ba8 Cu2 Na2 C4 O20,36,-2.083258020416667,['Na'],['O'],"[8, 9]",perovskite
ICSD-80613.cif,Li4 V4 P4 O20,32,-2.3541344656994045,['Li'],['O'],"[0, 1, 2, 3]",perovskite
ICSD-80624.cif,K4 Cu4 Zr4 S12,24,-1.4774005641666663,['Zr'],['S'],"[4, 5, 6, 7]",perovskite
ICSD-80625.cif,K4 Cu4 Zr4 Se12,24,-1.193354210416666,['Zr'],['Se'],"[4, 5, 6, 7]",perovskite
ICSD-80647.cif,Ag4 As4 F28,36,-1.7733588704166665,['As'],['F'],"[4, 5, 6, 7]",perovskite
ICSD-80651.cif,Ba4 Zr2 S8,14,-2.095851092142857,['Zr'],['S'],"[4, 5]",perovskite
ICSD-80652.cif,Ba4 Hf2 S8,14,-2.0987156600000003,['Hf'],['S'],"[4, 5]",perovskite
ICSD-80717.cif,Hg3 Ca3 O6,12,-1.7627075966666663,['Ca'],['O'],"[0, 1, 2]",perovskite
ICSD-80874.cif,Sr Ti O3,5,-3.1724104733333336,['Ti'],['O'],[1],perovskite
ICSD-808.cif,Rb4 Cd4 Br12,20,-1.2557817640000002,['Cd'],['Br'],"[4, 5, 6, 7]",perovskite
ICSD-80909.cif,Cs4 Pd4 Al4 F24,36,-2.6414656783333337,['Al'],['F'],"[4, 5, 6, 7]",perovskite
ICSD-80957.cif,Mn8 Si4 Se16,28,-0.4048045163711004,['Mn'],['Se'],"[0, 1, 2, 3, 4, 5, 6, 7]",perovskite
ICSD-8097.cif,Ca4 Te4 O16,24,-1.8237593036111108,"['Te', 'Ca']",['O'],"[0, 1, 2, 3, 4, 5, 6, 7]",perovskite
ICSD-8098.cif,Sr4 Te4 O16,24,-1.8284590102777785,"['Te', 'Sr']",['O'],"[0, 1, 2, 3, 4, 5, 6, 7]",perovskite
ICSD-81010.cif,Na4 C2 O6,12,-1.7300696641666669,['Na'],['O'],"[0, 1]",perovskite
ICSD-8105.cif,Cs2 Cr2 I6,10,-0.7657683197499999,['Cr'],['I'],"[2, 3]",perovskite
ICSD-81063.cif,Pb As2 O6,9,-1.2866267463888894,"['Pb', 'As']",['O'],"[0, 1, 2]",perovskite
ICSD-81064.cif,Ca As2 O6,9,-1.7791297555555563,"['As', 'Ca']",['O'],"[0, 1, 2]",perovskite
ICSD-81071.cif,Ba6 Cr4 Mo2 O18,30,-2.369409225333334,"['Mo', 'Cr']",['O'],"[6, 7, 8, 9, 10, 11]",perovskite
ICSD-81072.cif,Ba6 Cr4 W2 O18,30,-2.4132313830000007,"['W', 'Cr']",['O'],"[6, 7, 8, 9, 10, 11]",perovskite
ICSD-81133.cif,Mg8 Si8 O24,40,-2.8347922329999995,['Mg'],['O'],"[0, 1, 2, 3]",perovskite
ICSD-81203.cif,Ca8 Fe4 W4 O24,40,-2.5356174815,"['Fe', 'W']",['O'],"[8, 9, 10, 11, 12, 13, 14, 15]",perovskite
ICSD-81315.cif,Ba8 Bi8 O24,40,-1.8066810685000008,['Bi'],['O'],"[8, 9, 10, 11, 12, 13, 14, 15]",perovskite
ICSD-81394.cif,Rb3 La3 S6,12,-1.9821038150000003,"['Rb', 'La']",['S'],"[0, 1, 2, 3, 4, 5]",perovskite
ICSD-813.cif,Na8 Co4 Cl16,28,-1.3979903921428571,['Na'],['Cl'],"[0, 1, 2, 3]",perovskite
ICSD-8146.cif,La4 Ti4 O12,20,-3.1723359558333337,['Ti'],['O'],"[4, 5, 6, 7]",perovskite
ICSD-81480.cif,Zr4 P8 O28,40,-2.71308695595238,['Zr'],['O'],"[0, 1, 2, 3]",perovskite
ICSD-81505.cif,Na8 S4 O16,28,-1.8691957046428576,['Na'],['O'],"[4, 5, 6, 7]",perovskite
ICSD-81559.cif,Na4 Fe4 Se8 O24,40,-1.198760327083334,['Fe'],['O'],"[4, 5, 6, 7]",perovskite
ICSD-81560.cif,Ba4 Co4 Se8 O24,40,-1.4932923340833333,['Co'],['O'],"[4, 5, 6, 7]",perovskite
ICSD-81655.cif,Cd12 K8 S16,36,-0.9668897058333334,['K'],['S'],"[0, 1, 2, 3]",perovskite
ICSD-81658.cif,Cd12 K8 Te16,36,-0.6838343365740739,['K'],['Te'],"[0, 1, 2, 3]",perovskite
ICSD-81681.cif,Rb4 K2 Sc2 F12,20,-3.3222607872500007,"['K', 'Sc']",['F'],"[0, 1, 6, 7]",perovskite
ICSD-81683.cif,Rb8 K4 Sc4 F24,40,-3.31223598025,"['K', 'Sc']",['F'],"[0, 1, 2, 3, 12, 13, 14, 15]",perovskite
ICSD-8174.cif,Mn2 Rb4 Br8,14,-1.2243446505665023,['Mn'],['Br'],"[4, 5]",perovskite
ICSD-81835.cif,K12 S4 F4 O16,36,-2.1141459862500005,['F'],['K'],"[32, 33, 34, 35]",anti-perovskite
ICSD-81844.cif,Ba8 Cr4 Nb4 O24,40,-2.66295393225,"['Nb', 'Cr']",['O'],"[8, 9, 10, 11, 12, 13, 14, 15]",perovskite
ICSD-81849.cif,Ba4 Sn2 O8,14,-2.3377673955357148,['Sn'],['O'],"[4, 5]",perovskite
ICSD-81851.cif,Sr8 Sn4 O16,28,-2.401679266964285,['Sn'],['O'],"[8, 9, 10, 11]",perovskite
ICSD-81852.cif,Sr8 Sn4 O16,28,-2.399768156964285,['Sn'],['O'],"[8, 9, 10, 11]",perovskite
ICSD-81855.cif,Os4 F24,28,-1.61863733,['Os'],['F'],"[0, 1, 2, 3]",perovskite
ICSD-81856.cif,Pt4 F24,28,-1.054505029642857,['Pt'],['F'],"[0, 1, 2, 3]",perovskite
ICSD-81864.cif,K2 Al F5,8,-3.25175737203125,['Al'],['F'],[2],perovskite
ICSD-82065.cif,Cu2 Cr2 O4,8,-1.2306616493750004,['Cr'],['O'],"[0, 1]",perovskite
ICSD-82147.cif,Nb10 Y2 K4 O30,46,-2.8373426584782613,['Nb'],['O'],"[6, 7, 8, 9, 10, 11, 12, 13, 14, 15]",perovskite
ICSD-82161.cif,Fe4 V4 O16,24,-2.0274287812500007,['Fe'],['O'],"[4, 5, 6, 7]",perovskite
ICSD-82199.cif,Fe2 Li4 Br8,14,-1.3241857095238092,"['Li', 'Fe']",['Br'],"[0, 1, 2, 3, 4, 5]",perovskite
ICSD-82236.cif,Fe8 O8,16,-1.7262691012499998,['Fe'],['O'],"[0, 1, 2, 3, 4, 5, 6, 7, 8, 9, 10, 11, 12, 13, 14, 15]",perovskite
ICSD-82277.cif,Bi8 Li8 O24,40,-1.2495120804166668,['Bi'],['O'],"[8, 9, 10, 11, 12, 13, 14, 15]",perovskite
ICSD-82283.cif,Ti4 P4 O16,24,-2.5171557223214287,['Ti'],['O'],"[0, 1, 2, 3]",perovskite
ICSD-82362.cif,Mg4 Mo6 O16,26,-2.287023710769231,"['Mo', 'Mg']",['O'],"[2, 3, 4, 5, 6, 7, 8, 9]",perovskite
ICSD-82560.cif,Tl4 Zr4 Cu4 S12,24,-1.1967621608333332,['Zr'],['S'],"[0, 1, 2, 3]",perovskite
ICSD-82561.cif,Tl4 Zr4 Cu4 Se12,24,-0.9318092749999995,['Zr'],['Se'],"[0, 1, 2, 3]",perovskite
ICSD-82562.cif,Tl4 Hf4 Cu4 S12,24,-1.184318613333333,['Hf'],['S'],"[0, 1, 2, 3]",perovskite
ICSD-82563.cif,Tl4 Hf4 Cu4 Se12,24,-0.9066190466666674,['Hf'],['Se'],"[0, 1, 2, 3]",perovskite
ICSD-82616.cif,Cs4 Ca2 F8,14,-3.246168250714286,['Ca'],['F'],"[4, 5]",perovskite
ICSD-82750.cif,K12 Se4 F4 O16,36,-1.7099959400462963,['F'],['K'],"[32, 33, 34, 35]",anti-perovskite
ICSD-82905.cif,K4 La4 Ti6 O20,34,-3.027326004117646,['Ti'],['O'],"[8, 9]",perovskite
ICSD-82907.cif,Li4 La4 Ti6 O20,34,-3.0764851806862765,['Ti'],['O'],"[8, 9]",perovskite
ICSD-82973.cif,Ca4 Ru4 O12,20,-1.8985994635000003,['Ru'],['O'],"[4, 5, 6, 7]",perovskite
ICSD-82982.cif,Sr Ru O3,5,-1.832571945,['Ru'],['O'],[1],perovskite
ICSD-83258.cif,Ca8 Pd4 W4 O24,40,-2.0129007322500003,"['Pd', 'W']",['O'],"[8, 9, 10, 11, 12, 13, 14, 15]",perovskite
ICSD-83363.cif,Mg3 Al6 Se12,21,-0.9640356130952382,['Mg'],['Se'],"[0, 1, 2]",perovskite
ICSD-83411.cif,Hg3 Ba3 O6,12,-1.6284933737500005,['Ba'],['O'],"[0, 1, 2]",perovskite
ICSD-83455.cif,Ca8 Ti4 Si4 O24,40,-3.0092869826666666,"['Ti', 'Si']",['O'],"[8, 9, 10, 11, 12, 13, 14, 15]",perovskite
ICSD-83509.cif,Al4 O12 H12 Cl2 Li2,32,-1.8056720793489591,"['Li', 'Al']",['O'],"[0, 1, 2, 3, 4, 5]",perovskite
ICSD-836.cif,W8 O24,32,-2.220608903125001,['W'],['O'],"[0, 1, 2, 3, 4, 5, 6, 7]",perovskite
ICSD-83723.cif,Co3 Zr3 F18,24,-3.1841612646875,"['Zr', 'Co']",['F'],"[0, 1, 2, 3, 4, 5]",perovskite
ICSD-83724.cif,Co4 Zr4 F24,32,-3.1881325878125004,"['Zr', 'Co']",['F'],"[0, 1, 2, 3, 4, 5, 6, 7]",perovskite
ICSD-83734.cif,Ba3 Ge12 O27,42,-1.918653957738096,['Ge'],['O'],"[12, 13, 14]",perovskite
ICSD-83896.cif,Ba2 Nb5 O9,16,-2.626841504062501,['Nb'],['O'],[6],perovskite
ICSD-84212.cif,Rb2 Cu2 Cl6,10,-1.05810957825,['Cu'],['Cl'],"[2, 3]",perovskite
ICSD-84226.cif,Li6 Ta6 O18,30,-2.7835177926666668,['Ta'],['O'],"[6, 7, 8, 9, 10, 11]",perovskite
ICSD-84567.cif,V4 Sb4 O16,24,-1.846211457083334,"['V', 'Sb']",['O'],"[0, 1, 2, 3, 4, 5, 6, 7]",perovskite
ICSD-84575.cif,Ru2 O4,6,-1.2087692416666669,['Ru'],['O'],"[0, 1]",perovskite
ICSD-84619.cif,Ru2 O4,6,-1.20874073,['Ru'],['O'],"[0, 1]",perovskite
ICSD-84649.cif,N3 Cl3 Li12,18,-0.8892620109027776,['Cl'],['Li'],"[15, 16, 17]",anti-perovskite
ICSD-84652.cif,Ba4 Ru4 O12,20,-1.871243261,['Ru'],['O'],"[4, 5, 6, 7]",perovskite
ICSD-84654.cif,Mn4 V4 Li4 O16,28,-2.1307150913998365,['Mn'],['O'],"[4, 5, 6, 7]",perovskite
ICSD-84723.cif,Sr4 Zr4 Se12,20,-1.6645078324999991,['Zr'],['Se'],"[4, 5, 6, 7]",perovskite
ICSD-84763.cif,N3 Cl6 Li15,24,-1.1223468643750003,['Li'],['Cl'],"[12, 13, 14, 18, 19, 20, 21, 22, 23]",perovskite
ICSD-84789.cif,Cu2 Sb4 O12,18,-1.1647475002777783,"['Cu', 'Sb']",['O'],"[0, 1, 2, 3, 4, 5]",perovskite
ICSD-84886.cif,Zr4 V8 O28,40,-2.7743128257500005,['Zr'],['O'],"[0, 1, 2, 3]",perovskite
ICSD-8491.cif,Pb2 O4,6,-0.8417295308333337,['Pb'],['O'],"[0, 1]",perovskite
ICSD-84933.cif,La6 Ni6 O18,30,-2.239677952666668,['Ni'],['O'],"[6, 7, 8, 9, 10, 11]",perovskite
ICSD-85008.cif,Mg4 Nb8 O24,36,-2.8302808194444444,['Mg'],['O'],"[0, 1, 2, 3]",perovskite
ICSD-85091.cif,K3 Nb3 B2 O12,20,-2.606004092250001,['Nb'],['O'],"[3, 4, 5]",perovskite
ICSD-85125.cif,Ca8 Fe4 Mn4 O20,36,-2.2464763337739457,['Mn'],['O'],"[8, 9, 10, 11]",perovskite
ICSD-85410.cif,Se12 Cs12 Bi4,28,-0.9776358375,['Cs'],['Se'],"[4, 5, 6, 7]",perovskite
ICSD-85411.cif,Se12 Rb12 Bi4,28,-0.9535520035714288,['Rb'],['Se'],"[4, 5, 6, 7]",perovskite
ICSD-85412.cif,Se12 K8 Rb4 Bi4,28,-0.970725442857143,['Rb'],['Se'],"[8, 9, 10, 11]",perovskite
ICSD-85497.cif,Na4 Y4 Ge4 O16,28,-2.5009103999999995,"['Na', 'Y']",['O'],"[0, 1, 2, 3, 4, 5, 6, 7]",perovskite
ICSD-85499.cif,Rb2 Fe2 F8,12,-2.4871950941666667,['Fe'],['F'],"[2, 3]",perovskite
ICSD-85551.cif,Na8 Si7 O18,33,-2.4539711081818187,['Si'],['O'],[8],perovskite
ICSD-85574.cif,Te As2 Pb3 Zn3 O14,23,-1.3452105360507247,['Te'],['O'],[3],perovskite
ICSD-85727.cif,Mo4 V4 Al4 O28,40,-2.4040731289999995,['Al'],['O'],"[0, 1, 2, 3]",perovskite
ICSD-86097.cif,K4 Sb4 V8 O32,48,-2.095671191458333,['Sb'],['O'],"[12, 13, 14, 15]",perovskite
ICSD-86098.cif,Rb4 Sb4 V8 O32,48,-2.098027763125,['Sb'],['O'],"[12, 13, 14, 15]",perovskite
ICSD-86139.cif,O24 Pb8 Te4 Mg4,40,-1.4677273816666665,"['Te', 'Mg']",['O'],"[0, 1, 2, 3, 4, 5, 6, 7]",perovskite
ICSD-86427.cif,Tl Sr2 Cu O5,9,-1.607228450833334,['O'],"['Tl', 'Sr']",[7],anti-perovskite
ICSD-86518.cif,Fe2 Te4,6,-0.5678484227777775,['Fe'],['Te'],"[0, 1]",perovskite
ICSD-86519.cif,V S2,3,-1.0639289166666668,['V'],['S'],[0],perovskite
ICSD-86520.cif,V Se2,3,-0.7167910477777776,['V'],['Se'],[0],perovskite
ICSD-86830.cif,Sr4 Hf4 O12,20,-3.4337544085,['Hf'],['O'],"[4, 5, 6, 7]",perovskite
ICSD-86932.cif,Sc4 Al4 O12,20,-3.266686629,['Al'],['O'],"[4, 5, 6, 7]",perovskite
ICSD-86940.cif,Sr4 Ru4 O12,20,-1.8607794615000004,['Ru'],['O'],"[4, 5, 6, 7]",perovskite
ICSD-86941.cif,Sr Ru O3,5,-1.832571969,['Ru'],['O'],[1],perovskite
ICSD-87086.cif,Fe8 Ge4 Se16,28,-0.6421241034523811,['Fe'],['Se'],"[0, 1, 2, 3, 4, 5, 6, 7]",perovskite
ICSD-87260.cif,Cs2 Mg2 Br6,10,-1.6784433014999998,['Mg'],['Br'],"[2, 3]",perovskite
ICSD-87262.cif,Cs2 Mg2 I6,10,-1.2969261087499997,['Mg'],['I'],"[2, 3]",perovskite
ICSD-87360.cif,Pt K2 F6,9,-2.209762663055556,['Pt'],['F'],[2],perovskite
ICSD-87415.cif,Te9 Sb6,15,-0.1300954553333326,['Sb'],['Te'],"[0, 1, 2, 3, 4, 5, 7, 10, 13]",perovskite
ICSD-876.cif,Y4 Fe4 O12,20,-2.661439394,['Fe'],['O'],"[4, 5, 6, 7]",perovskite
ICSD-87811.cif,Bi8 Ti6 O24,38,-2.078690265789473,['Ti'],['O'],"[0, 1]",perovskite
ICSD-87825.cif,Ca4 Pb4 O12,20,-1.765712556500001,['Pb'],['O'],"[4, 5, 6, 7]",perovskite
ICSD-8786.cif,Cs3 La3 Se6,12,-1.763390503125,['La'],['Se'],"[3, 4, 5]",perovskite
ICSD-87943.cif,F6 Ni2,8,-1.6836866240625,['Ni'],['F'],"[0, 1]",perovskite
ICSD-8811.cif,Cr4 Re2 O12,18,-1.6877487194444445,"['Re', 'Cr']",['O'],"[0, 1, 2, 3, 4, 5]",perovskite
ICSD-88261.cif,Y4 Al4 O12,20,-3.3482628745000005,['Al'],['O'],"[4, 5, 6, 7]",perovskite
ICSD-88454.cif,Fe8 B4 O16,28,-2.0279361210714293,['Fe'],['O'],"[0, 1, 2, 3, 4, 5, 6, 7]",perovskite
ICSD-88497.cif,Li4 Ca4 Ta6 O20,34,-2.848445911274512,['Ta'],['O'],"[8, 9]",perovskite
ICSD-88499.cif,Na4 Ca4 Ta6 O20,34,-2.7710076808823536,['Ta'],['O'],"[8, 9]",perovskite
ICSD-88574.cif,Cr3 H3 O6,12,-1.3637002418750004,['Cr'],['O'],"[0, 1, 2]",perovskite
ICSD-88700.cif,Ba4 Cu2 W2 O12,20,-2.252840944250001,['W'],['O'],"[6, 7]",perovskite
ICSD-88701.cif,Sr4 Cu2 W2 O12,20,-2.28028172075,['W'],['O'],"[6, 7]",perovskite
ICSD-88703.cif,Ba4 Cu2 Te2 O12,20,-1.7546517209166663,['Te'],['O'],"[6, 7]",perovskite
ICSD-88715.cif,La4 Ba4 Cu4 Te12,24,-1.2969732004166663,['La'],['Te'],"[4, 5, 6, 7]",perovskite
ICSD-88716.cif,Y4 Ba4 Cu4 Te12,24,-1.2787496525000002,['Y'],['Te'],"[4, 5, 6, 7]",perovskite
ICSD-88717.cif,Y4 Ba4 Ag4 Te12,24,-1.2732332079166664,['Y'],['Te'],"[4, 5, 6, 7]",perovskite
ICSD-88722.cif,Co O2,3,-1.2512356450000006,['Co'],['O'],[0],perovskite
ICSD-88723.cif,Nb4 Sr4 O12,20,-2.8971240990000005,['Nb'],['O'],"[4, 5, 6, 7]",perovskite
ICSD-88790.cif,Sr Ge Te O6,9,-1.8263023240740748,"['Te', 'Ge', 'Sr']",['O'],"[0, 1, 2]",perovskite
ICSD-8880.cif,Cs12 Cl24 Sc4,40,-2.086612092,"['Cs', 'Sc']",['Cl'],"[8, 9, 10, 11, 12, 13, 14, 15]",perovskite
ICSD-8881.cif,Rb12 Cl24 Sc4,40,-2.0454222755000004,"['Rb', 'Sc']",['Cl'],"[8, 9, 10, 11, 12, 13, 14, 15]",perovskite
ICSD-88852.cif,Au3 Cr3 S6,12,-0.4327989108333335,['Cr'],['S'],"[0, 1, 2]",perovskite
ICSD-88890.cif,Hf3 Na6 O18 H18,45,-1.6983839125555555,"['Hf', 'Na']",['O'],"[0, 1, 2, 3, 4, 5, 6, 7, 8]",perovskite
ICSD-88961.cif,Cu4 Rh8 O16,28,-0.906803072142858,['Rh'],['O'],"[4, 5, 6, 7, 8, 9, 10, 11]",perovskite
ICSD-88978.cif,Ca4 V4 O12,20,-2.773785072,['V'],['O'],"[4, 5, 6, 7]",perovskite
ICSD-88982.cif,Sr V O3,5,-2.780861782,['V'],['O'],[1],perovskite
ICSD-89010.cif,Rb Ca2 Ta3 O10,16,-2.936751456250001,['Ta'],['O'],[3],perovskite
ICSD-89011.cif,Cs Ca2 Ta3 O10,16,-2.9432283470312504,['Ta'],['O'],[3],perovskite
ICSD-89039.cif,Ba3 Mg3 C6 O18,30,-2.162713800166668,['Mg'],['O'],"[3, 4, 5]",perovskite
ICSD-89355.cif,Sr8 Zr8 O24,40,-3.3719770345,['Zr'],['O'],"[8, 9, 10, 11, 12, 13, 14, 15]",perovskite
ICSD-89356.cif,Sr4 Zr4 O12,20,-3.3669813495,['Zr'],['O'],"[4, 5, 6, 7]",perovskite
ICSD-89365.cif,Sr Zr O3,5,-3.32563239,['Zr'],['O'],[1],perovskite
ICSD-89367.cif,Ta4 Se8,12,-0.8277188244444448,['Ta'],['Se'],"[0, 1]",perovskite
ICSD-89383.cif,Sr4 Hf4 O12,20,-3.43376561,['Hf'],['O'],"[4, 5, 6, 7]",perovskite
ICSD-89384.cif,Sr8 Hf8 O24,40,-3.4277725197499995,['Hf'],['O'],"[8, 9, 10, 11, 12, 13, 14, 15]",perovskite
ICSD-89385.cif,Sr4 Hf4 O12,20,-3.424887449,['Hf'],['O'],"[4, 5, 6, 7]",perovskite
ICSD-89386.cif,Sr Hf O3,5,-3.3917062840000005,['Hf'],['O'],[1],perovskite
ICSD-89432.cif,Ag6 Bi6 O18,30,-0.6197243190000005,['Bi'],['O'],"[6, 7, 8, 9, 10, 11]",perovskite
ICSD-89587.cif,K12 Fe8 Se16,36,-0.8698286360185187,['K'],['Se'],"[0, 1, 2, 3]",perovskite
ICSD-89607.cif,Se12 K12 Sb4,28,-0.9724129489285716,['K'],['Se'],"[4, 5, 6, 7]",perovskite
ICSD-89608.cif,Se12 Rb12 Sb4,28,-0.9646426803571428,['Rb'],['Se'],"[4, 5, 6, 7]",perovskite