file_name,formula,atom_num,formation_energy,B_element,X_element,sites,perovskite_judge
ICSD-425286.cif,Li4 Sn2 Mo6 O16,28,-1.9754224600297632,"['Sn', 'Mo']",['O'],"[4, 5, 6, 7, 8, 9, 10, 11]",perovskite
ICSD-280786.cif,Pb4 Mn4 V4 O20 H4,36,-1.7679519723850576,['Mn'],['O'],"[0, 1, 2, 3]",perovskite
ICSD-431400.cif,Ag4 Ta4 Se8 O28,44,-1.4010316318939393,['Ta'],['O'],"[0, 1, 2, 3]",perovskite
ICSD-261080.cif,Sc F3,4,-4.007318794062501,['Sc'],['F'],[0],perovskite
ICSD-262042.cif,Te4 Sc4,8,-1.0572425008333337,['Sc'],['Te'],"[0, 1, 2, 3, 6, 7]",perovskite
ICSD-426551.cif,Cs12 Sb4 S12,28,-1.1132720292857148,['Cs'],['S'],"[8, 9, 10, 11]",perovskite
ICSD-409714.cif,Al8 Ge4 F8 O16,36,-2.7793644150000003,['Al'],"['O', 'F']","[0, 1, 2, 3, 4, 5, 6, 7]",perovskite
ICSD-619574.cif,Ca8 Si4 Se16,28,-1.3490515123809523,['Ca'],['Se'],"[0, 1, 2, 3, 4, 5, 6, 7]",perovskite
ICSD-425145.cif,Re3 Cl18,21,-0.5338748205952379,['Re'],['Cl'],"[0, 1, 2]",perovskite
ICSD-619530.cif,Ca4 S4,8,-2.29344454125,['Ca'],['S'],"[0, 1, 2, 3, 4, 5, 6, 7]",perovskite
ICSD-291494.cif,Fe12 O18,30,-0.5199559320000001,['Fe'],['O'],"[6, 7, 8, 9, 10, 11]",perovskite
ICSD-257905.cif,Sr Cr O3,5,-2.341792859000001,['Cr'],['O'],[1],perovskite
ICSD-291296.cif,Rb4 Te8 Y4 O24,40,-1.922306605083334,['Y'],['O'],"[4, 5, 6, 7]",perovskite
ICSD-253880.cif,Ca2 Co6 V8 O24,40,-2.1807047467500005,['V'],['O'],"[2, 3, 4, 5, 6, 7, 8, 9]",perovskite
ICSD-411231.cif,Hg As2 O6,9,-1.0130550288888895,"['As', 'Hg']",['O'],"[0, 1, 2]",perovskite
ICSD-611197.cif,Pd4 As4 S4,12,-0.4649881933333333,['Pd'],"['S', 'As']","[4, 5, 6, 7]",perovskite
ICSD-409571.cif,Fe Br2,3,-1.0372452316666667,['Fe'],['Br'],[0],perovskite
ICSD-261484.cif,Ba8 In4 Ta4 O24,40,-2.69768285175,"['Ta', 'In']",['O'],"[8, 9, 10, 11, 12, 13, 14, 15]",perovskite
ICSD-650285.cif,Rh9 Se24,33,-0.4621917863636366,['Rh'],['Se'],"[0, 1, 2, 3, 4, 5, 6, 7, 8]",perovskite
ICSD-264690.cif,Ba2 Ni2 O6,10,-1.8257881570000003,['Ni'],['O'],"[2, 3]",perovskite
ICSD-410568.cif,K2 V12 O22,36,-2.337705139444444,['V'],['O'],"[2, 3, 4, 5, 6, 7, 8, 9, 10, 11]",perovskite
ICSD-10004.cif,Cu8 S8 Na6,22,-0.7610260663636365,['Na'],['S'],"[0, 1, 2, 3]",perovskite
ICSD-100069.cif,Tl8 Pb2 I12,22,-0.6768978109090908,['Pb'],['I'],"[8, 9]",perovskite
ICSD-10012.cif,Cs3 Al3 F12,18,-3.3586744361111114,['Al'],['F'],"[3, 4, 5]",perovskite
ICSD-100140.cif,Al4 Na4 C4 O20 H8,40,-1.8557406400000005,['Al'],['O'],"[4, 5, 6, 7]",perovskite
ICSD-10015.cif,As8 O20,28,-1.0746938832142865,['As'],['O'],"[0, 1, 2, 3]",perovskite
ICSD-100298.cif,K4 Zn2 F8,14,-2.620257314285715,['Zn'],['F'],"[4, 5]",perovskite
ICSD-100299.cif,K6 Zn4 F14,24,-2.5946101571875,['Zn'],['F'],"[6, 7, 8, 9]",perovskite
ICSD-100301.cif,Fe4 Zr4 F24,32,-3.359110153125,"['Fe', 'Zr']",['F'],"[0, 1, 2, 3, 4, 5, 6, 7]",perovskite
ICSD-100308.cif,Ca8 Al4 F28,40,-3.790237445625,['Al'],['F'],"[8, 9, 10, 11]",perovskite
ICSD-100451.cif,Al8 Si4 O20,32,-2.951921528125,['Al'],['O'],"[0, 1, 2, 3]",perovskite
ICSD-100482.cif,Na6 Mg3 C6 O18,33,-1.8968066975757576,['Mg'],['O'],"[6, 7, 8]",perovskite
ICSD-100568.cif,Pd4 F8,12,-1.093908863333333,['Pd'],['F'],"[0, 1, 2, 3]",perovskite
ICSD-10058.cif,Nb4 La12 O28,44,-3.2608970334090914,['Nb'],['O'],"[12, 13, 14, 15]",perovskite
ICSD-100596.cif,K2 V8 O16,26,-2.338778668846154,['V'],['O'],"[2, 3, 4, 5, 6, 7, 8, 9]",perovskite
ICSD-100611.cif,Sn S2,3,-0.5578795979166671,['Sn'],['S'],[0],perovskite
ICSD-10062.cif,Pb3 O18 Li24,45,-1.7315214571666673,['Pb'],['O'],"[24, 25, 26]",perovskite
ICSD-100633.cif,Na4 Cl4,8,-1.815518100625,['Na'],['Cl'],"[0, 1, 2, 3, 4, 5, 6, 7]",perovskite
ICSD-100654.cif,Te6 Bi6,12,-0.1997652241666667,['Bi'],['Te'],"[0, 1, 2, 3, 8, 9]",perovskite
ICSD-100677.cif,Mn6 C6 O18,30,-1.4069301654597717,['Mn'],['O'],"[0, 1, 2, 3, 4, 5]",perovskite
ICSD-100679.cif,Zn6 C6 O18,30,-1.4155746803333338,['Zn'],['O'],"[0, 1, 2, 3, 4, 5]",perovskite
ICSD-100687.cif,Pb4 In8 S16,28,-0.6982904757142856,['In'],['S'],"[0, 1, 2, 3, 4, 5, 6, 7]",perovskite
ICSD-100782.cif,K3 V3 O8,14,-2.3183948903571427,['V'],['O'],[3],perovskite
ICSD-100797.cif,Ba6 Te4 O18,28,-1.956316870238096,['Te'],['O'],"[6, 7, 8, 9]",perovskite
ICSD-100913.cif,Te8 Co4,12,-0.4647792936111106,['Co'],['Te'],"[0, 1, 2, 3]",perovskite
ICSD-100918.cif,Se8 Rh4,12,-0.4785696636111112,['Rh'],['Se'],"[0, 1, 2, 3]",perovskite
ICSD-100922.cif,Hf Te2,3,-0.8866301744444437,['Hf'],['Te'],[0],perovskite
ICSD-100923.cif,Hf Se2,3,-1.4166246277777776,['Hf'],['Se'],[0],perovskite
ICSD-101148.cif,Rh12 O18,30,-1.014009968000001,['Rh'],['O'],"[0, 1, 2, 3, 4, 5, 6, 7, 8, 9, 10, 11]",perovskite
ICSD-101261.cif,Rb4 Sc4 Se8 O24,40,-1.7722094898333338,['Sc'],['O'],"[4, 5, 6, 7]",perovskite
ICSD-101266.cif,K4 Sc4 Se8 O24,40,-1.7909503610833333,['Sc'],['O'],"[4, 5, 6, 7]",perovskite
ICSD-101356.cif,Na2 Ca2 Re6 O24,34,-1.9497108667647065,['Na'],['O'],"[0, 1]",perovskite
ICSD-10142.cif,Tl4 Sb4 O12,20,-1.3046669010000005,['Sb'],['O'],"[4, 5, 6, 7]",perovskite
ICSD-10186.cif,In Rb Mo2 O8,12,-2.0188507858333344,['In'],['O'],[1],perovskite
ICSD-10187.cif,In2 K2 W4 O16,24,-2.069527395416667,['In'],['O'],"[2, 3]",perovskite
ICSD-101910.cif,Li8 Ni8 Te4 O24,44,-1.4731919453030309,['Te'],['O'],"[16, 17, 18, 19]",perovskite
ICSD-10193.cif,As4 F36 S4 O4,48,-1.8207304817708327,['As'],['F'],"[0, 1, 2, 3]",perovskite
ICSD-10250.cif,Ba8 Mn8 O24,40,-2.166476925293104,['Mn'],['O'],"[8, 9, 10, 11, 12, 13, 14, 15]",perovskite
ICSD-102845.cif,Cr2 S2,4,-0.5484138875000006,['Cr'],['S'],"[0, 1]",perovskite
ICSD-10325.cif,Li Cr Se2,4,-0.5329431804166664,"['Li', 'Cr']",['Se'],"[0, 1]",perovskite
ICSD-10332.cif,O6 Mn2 Ba2,10,-2.178239510793104,['Mn'],['O'],"[2, 3]",perovskite
ICSD-10347.cif,Hg3 Cr3 F18,24,-1.9780007905208328,"['Hg', 'Cr']",['F'],"[0, 1, 2, 3, 4, 5]",perovskite
ICSD-10359.cif,Sr4 Ag24 O16,44,-0.6491477331818184,['Sr'],['O'],"[0, 1, 2, 3]",perovskite
ICSD-1036.cif,Na12 As4 S12,28,-0.9773454849999996,['Na'],['S'],"[0, 1, 2, 3]",perovskite
ICSD-10380.cif,K2 Ta2 Ge6 O18,28,-2.069903043214287,['Ta'],['O'],"[2, 3]",perovskite
ICSD-10381.cif,Rb2 Ta2 Ge6 O18,28,-2.0737629535714297,['Ta'],['O'],"[2, 3]",perovskite
ICSD-10382.cif,Rb2 Nb2 Ge6 O18,28,-2.0254216042857154,['Nb'],['O'],"[2, 3]",perovskite
ICSD-10383.cif,Tl2 Ta2 Ge6 O18,28,-1.9232969014285728,['Ta'],['O'],"[0, 1]",perovskite
ICSD-10384.cif,Ba2 Sn2 Ge6 O18,28,-1.915063310982144,['Sn'],['O'],"[2, 3]",perovskite
ICSD-10385.cif,Ba2 Sn2 Si6 O18,28,-2.6607031599107143,['Sn'],['O'],"[8, 9]",perovskite
ICSD-1038.cif,Ba6 Cu3 Cl3 O6,18,-2.1378503667361106,['Cl'],['Ba'],"[9, 10, 11]",anti-perovskite
ICSD-10474.cif,Cs2 Cl6 Sc2,10,-1.96543713925,['Sc'],['Cl'],"[2, 3]",perovskite
ICSD-10481.cif,Re4 Bi4 O16,24,-1.4704641200000002,['Re'],['O'],"[0, 1, 2, 3]",perovskite
ICSD-10486.cif,Ba2 V2 Se6,10,-1.2221719120000003,['V'],['Se'],"[2, 3]",perovskite
ICSD-104913.cif,Nb6 Mn2 S12,20,-1.3428710658965517,['Mn'],['S'],"[0, 1]",perovskite
ICSD-105813.cif,Pt Te2,3,-0.4305627894444441,['Pt'],['Te'],[2],perovskite
ICSD-105914.cif,Rh4 S8,12,-0.6384331166666666,['Rh'],['S'],"[0, 1, 2, 3]",perovskite
ICSD-107308.cif,Mg3 Al6 S12,21,-1.3284671926190474,['Mg'],['S'],"[0, 1, 2]",perovskite
ICSD-107586.cif,Bi Te Ni9 S8,19,-0.6563616169298244,['Bi'],['S'],[9],perovskite
ICSD-107587.cif,S2 Bi6 Te4,12,-0.2399037563888887,['Bi'],['Te'],"[2, 3, 6, 7]",perovskite
ICSD-108594.cif,Ta8 Mn2 S16,26,-1.2768754837665783,['Mn'],['S'],"[8, 9]",perovskite
ICSD-108651.cif,W O3,4,-2.2149626,['W'],['O'],[0],perovskite
ICSD-108653.cif,Bi2 Cs3 Br9,14,-1.2802575041071431,['Bi'],['Br'],"[3, 4]",perovskite
ICSD-108732.cif,Zr4 S4,8,-1.4546442549999998,['Zr'],['S'],"[0, 1, 2, 3, 4, 5, 6, 7]",perovskite
ICSD-108808.cif,Ta8 Ca2 O22,32,-3.03151173625,['Ta'],['O'],"[8, 9]",perovskite
ICSD-108816.cif,Na2 Ga10 Ti4 O24,40,-2.228309821854167,['Ga'],['O'],"[6, 7, 8, 9, 10, 11]",perovskite
ICSD-108818.cif,K3 Cr3 O6,12,-1.4644648241666662,['Cr'],['O'],"[3, 4, 5]",perovskite
ICSD-108913.cif,I18 Pb9,27,-0.6907292061111108,['Pb'],['I'],"[0, 1, 2, 3, 4, 5, 6, 7, 8]",perovskite
ICSD-108914.cif,Pb6 I12,18,-0.6909862961111111,['Pb'],['I'],"[0, 1, 2, 3, 4, 5]",perovskite
ICSD-108918.cif,I12 Cd6,18,-0.6017780297222219,['Cd'],['I'],"[0, 1, 2, 3, 4, 5]",perovskite
ICSD-108919.cif,I16 Cd8,24,-0.6016991129166666,['Cd'],['I'],"[0, 1, 2, 3, 4, 5, 6, 7]",perovskite
ICSD-108924.cif,I10 Cd5,15,-0.6006866614999999,['Cd'],['I'],"[0, 1, 2, 3, 4]",perovskite
ICSD-108925.cif,I14 Cd7,21,-0.6014425755952382,['Cd'],['I'],"[0, 1, 2, 3, 4, 5, 6]",perovskite
ICSD-108926.cif,Cd9 I18,27,-0.6013891623148148,['Cd'],['I'],"[0, 1, 2, 3, 4, 5, 6, 7, 8]",perovskite
ICSD-108963.cif,Mg2 Sb4 O12,18,-1.777961445,"['Mg', 'Sb']",['O'],"[0, 1, 2, 3, 4, 5]",perovskite
ICSD-108995.cif,Mn8 Ge4 O16,28,-1.5001377850615774,['Mn'],['O'],"[0, 1, 2, 3, 4, 5, 6, 7]",perovskite
ICSD-108996.cif,Bi4 Rh4 O12,20,-1.1118858270000005,['Rh'],['O'],"[4, 5, 6, 7]",perovskite
ICSD-109070.cif,Mg4 Se4 O16,24,-1.4253637411111115,['Mg'],['O'],"[0, 1, 2, 3]",perovskite
ICSD-109071.cif,Mn4 Se4 O16,24,-1.036063629688698,['Mn'],['O'],"[0, 1, 2, 3]",perovskite
ICSD-109072.cif,Co4 Se4 O16,24,-0.965507839027778,['Co'],['O'],"[0, 1, 2, 3]",perovskite
ICSD-109073.cif,Cu4 Se4 O16,24,-0.5248694669444447,['Cu'],['O'],"[0, 1, 2, 3]",perovskite
ICSD-109076.cif,Sr Tc O3,5,-2.104360572000001,['Tc'],['O'],[1],perovskite
ICSD-109077.cif,Ba6 Tc6 O18,30,-2.0872869730000003,['Tc'],['O'],"[6, 7, 8, 9, 10, 11]",perovskite
ICSD-109087.cif,Bi4 Li12 O16,32,-1.5643733503124997,"['Li', 'Bi']",['O'],"[8, 9, 10, 11, 12, 13, 14, 15, 16, 17, 18, 19, 24, 25, 26, 27, 28, 29, 30, 31]",perovskite
ICSD-109093.cif,Zn8 Ti4 O16,28,-2.1217561923809525,"['Ti', 'Zn']",['O'],"[0, 1, 2, 3, 8, 9, 10, 11]",perovskite
ICSD-109162.cif,In4 Ba8 Nb4 O24,40,-2.6413805600000004,"['In', 'Nb']",['O'],"[8, 9, 10, 11, 12, 13, 14, 15]",perovskite
ICSD-109165.cif,Ni4 Sr8 W4 O24,40,-2.311694097000001,"['Ni', 'W']",['O'],"[8, 9, 10, 11, 12, 13, 14, 15]",perovskite
ICSD-109251.cif,Ba8 Ni4 Re4 O24,40,-1.9702388445,"['Ni', 'Re']",['O'],"[8, 9, 10, 11, 12, 13, 14, 15]",perovskite
ICSD-109252.cif,Ba8 Fe4 Re4 O24,40,-2.21302123425,"['Fe', 'Re']",['O'],"[8, 9, 10, 11, 12, 13, 14, 15]",perovskite
ICSD-109253.cif,Ba8 Mg4 Re4 O24,40,-2.4384257527500006,"['Mg', 'Re']",['O'],"[8, 9, 10, 11, 12, 13, 14, 15]",perovskite
ICSD-109254.cif,Ba8 Co4 Re4 O24,40,-2.09716750925,"['Re', 'Co']",['O'],"[8, 9, 10, 11, 12, 13, 14, 15]",perovskite
ICSD-109255.cif,Ba8 Zn4 Re4 O24,40,-2.1244551875000006,"['Zn', 'Re']",['O'],"[8, 9, 10, 11, 12, 13, 14, 15]",perovskite
ICSD-109257.cif,Ba8 Cd4 Re4 O24,40,-2.0576013752499995,"['Re', 'Cd']",['O'],"[8, 9, 10, 11, 12, 13, 14, 15]",perovskite
ICSD-109258.cif,Ba8 Ca4 Re4 O24,40,-2.5145618082499994,"['Re', 'Ca']",['O'],"[8, 9, 10, 11, 12, 13, 14, 15]",perovskite
ICSD-109260.cif,Ba8 Na4 Re4 O24,40,-2.2954668297500005,"['Na', 'Re']",['O'],"[8, 9, 10, 11, 12, 13, 14, 15]",perovskite
ICSD-109293.cif,Rb Cu F3,5,-2.05265162475,['Cu'],['F'],[1],perovskite
ICSD-109296.cif,Cr4 O4,8,-0.961004356250001,['Cr'],['O'],"[0, 1, 2, 3, 4, 5, 6, 7]",perovskite
ICSD-109327.cif,Ba Ti O3,5,-1.2960581463333334,['O'],"['Ba', 'O']",[2],anti-perovskite
ICSD-109365.cif,Tl8 Al4 F20,32,-2.7051777776562504,['Al'],['F'],"[0, 1, 2, 3]",perovskite
ICSD-109422.cif,La8 Ni4 O16 F8,36,-2.5002820744444443,['Ni'],"['O', 'F']","[8, 9, 10, 11]",perovskite
ICSD-109461.cif,Sr4 O4,8,-2.7461275900000004,['Sr'],['O'],"[0, 1, 2, 3, 4, 5, 6, 7]",perovskite
ICSD-109650.cif,Co6 O18 C6 H6,36,-1.2538525895833332,['Co'],['O'],"[0, 1, 2, 3, 4, 5]",perovskite
ICSD-109743.cif,Mn4 O16 C8 H8,36,-1.022630534329502,['Mn'],['O'],"[0, 1, 2, 3]",perovskite
ICSD-110259.cif,Cd2 Cl6 C6 H18 N2,34,-0.3156807699264715,['Cd'],['Cl'],"[0, 1]",perovskite
ICSD-110673.cif,Si2 F12 N4 H24 C4,46,-1.2252699766304345,['Si'],['F'],"[0, 1]",perovskite
ICSD-110773.cif,Mn Te2 Li,4,-0.2340839314080454,['Li'],['Te'],[0],perovskite
ICSD-110774.cif,Na Mn Te2,4,-0.1989321518247129,['Na'],['Te'],[0],perovskite
ICSD-11083.cif,K2 Ba2 Te2 Bi2 O12,20,-1.6744917876666672,"['Bi', 'Te']",['O'],"[4, 5, 6, 7]",perovskite
ICSD-111244.cif,Sb2 O18 Ge6 K2,28,-1.6723773035714282,['Sb'],['O'],"[8, 9]",perovskite
ICSD-111296.cif,Ir3 Na6 O18 H18,45,-1.140852180666667,"['Na', 'Ir']",['O'],"[0, 1, 2, 3, 4, 5, 24, 25, 26]",perovskite
ICSD-111519.cif,Cs2 Ti F6,9,-3.287404744907408,['Ti'],['F'],[2],perovskite
ICSD-111958.cif,Sn4 Cd4 S4 Cl8,20,-0.8971911997500002,['Cd'],"['S', 'Cl']","[0, 1, 2, 3]",perovskite
ICSD-111959.cif,Sn4 Cd4 S4 Br8,20,-0.7692312962500001,['Cd'],"['Br', 'S']","[0, 1, 2, 3]",perovskite
ICSD-112055.cif,Sr4 Cu4 Sc4 S12,24,-1.7789025662499995,['Sc'],['S'],"[4, 5, 6, 7]",perovskite
ICSD-112732.cif,La6 Sn2 S14 Li2,24,-1.7750219785069448,['Li'],['S'],"[0, 1]",perovskite
ICSD-112738.cif,La3 K5 Mg2 O18 B6,34,-2.6417114179411763,['Mg'],['O'],"[8, 9]",perovskite
ICSD-112861.cif,La6 Ge2 S14 Li2,24,-1.7947048802777783,['Li'],['S'],"[0, 1]",perovskite
ICSD-112955.cif,Ba Zn3 B2 O6 F2,14,-2.3084803819642863,['Zn'],['O'],[1],perovskite
ICSD-113085.cif,Mn2 Cs2 Br6,10,-1.2129693232931036,['Mn'],['Br'],"[2, 3]",perovskite
ICSD-113151.cif,Se F Li3,5,-1.8983163290833327,['F'],['Li'],[4],anti-perovskite
ICSD-113152.cif,Na3 Se F,5,-1.7062375060833337,['F'],['Na'],[4],anti-perovskite
ICSD-113153.cif,Te F Na3,5,-1.649222644083333,['F'],['Na'],[4],anti-perovskite
ICSD-113154.cif,Na12 F4 S4,20,-1.7508417152499995,['F'],['Na'],"[16, 17, 18, 19]",anti-perovskite
ICSD-1139.cif,Mn2 Rb4 Cl8,14,-1.4882826662807882,['Mn'],['Cl'],"[4, 5]",perovskite
ICSD-11524.cif,Cs8 Ag4 In4 Cl24,40,-1.4000162167499997,"['In', 'Ag']",['Cl'],"[8, 9, 10, 11, 12, 13, 14, 15]",perovskite
ICSD-1165.cif,Os2 Cl8,10,-0.4078413500000003,['Os'],['Cl'],"[0, 1]",perovskite
ICSD-11729.cif,La2 Mn6 Rh8 O24,40,-1.5436720278448277,['Rh'],['O'],"[8, 9, 10, 11, 12, 13, 14, 15]",perovskite
ICSD-1177.cif,Ba6 Ni2 Sb4 O18,30,-2.0108947923333336,['Sb'],['O'],"[8, 9, 10, 11]",perovskite
ICSD-1180.cif,Sn3 Li24 O18,45,-1.9009529146944444,['Sn'],['O'],"[24, 25, 26]",perovskite
ICSD-118.cif,Sb6 Cl24 N6 C6 O6,48,-0.6259246578124996,['Sb'],"['N', 'Cl', 'O']","[0, 1, 2, 3, 4, 5]",perovskite
ICSD-120047.cif,Sr4 Fe2 Re2 O12,20,-2.269634116,"['Fe', 'Re']",['O'],"[4, 5, 6, 7]",perovskite
ICSD-120050.cif,Sr4 Zn2 Re2 O12,20,-2.148924224500001,"['Zn', 'Re']",['O'],"[4, 5, 6, 7]",perovskite
ICSD-120093.cif,La4 S4,8,-2.2024544200000005,['La'],['S'],"[0, 1, 2, 3, 4, 5, 6, 7]",perovskite
ICSD-120097.cif,K Ta O3,5,-2.7324163350000013,['Ta'],['O'],[1],perovskite
ICSD-120112.cif,Ir3 Ca5 O12,20,-1.98099276825,['Ir'],['O'],"[5, 6, 7]",perovskite
ICSD-120561.cif,Pb8 Te4 Co4 O24,40,-1.1697357286666663,"['Te', 'Co']",['O'],"[0, 1, 2, 3, 4, 5, 6, 7]",perovskite
ICSD-120565.cif,Pb8 Te4 Mn4 O24,40,-1.0468913153132184,"['Te', 'Mn']",['O'],"[0, 1, 2, 3, 4, 5, 6, 7]",perovskite
ICSD-120929.cif,Ba6 Te10 Sc2,18,-1.5291864042592591,['Sc'],['Te'],"[6, 7]",perovskite
ICSD-120930.cif,Ba6 Sc2 Te10,18,-1.529769964259259,['Sc'],['Te'],"[6, 7]",perovskite
ICSD-121204.cif,Sn4 K8 F16 O4,32,-2.546683729531249,['Sn'],"['O', 'F']","[8, 9, 10, 11]",perovskite
ICSD-121298.cif,Na2 Ba Mn P2 O8,14,-2.3061534445349525,['Mn'],['O'],[3],perovskite
ICSD-12148.cif,In12 S18,30,-0.6835257089999999,['In'],['S'],"[0, 1, 2, 3, 4, 5, 6, 7, 8, 9, 10, 11]",perovskite
ICSD-121637.cif,Ti8 O16,24,-3.0702806380555563,['Ti'],['O'],"[0, 1, 2, 3, 4, 5, 6, 7]",perovskite
ICSD-122007.cif,Bi4 In4 O12,20,-1.3755033655000006,['In'],['O'],"[0, 1, 2, 3]",perovskite
ICSD-122033.cif,C2 Se2 Zr4,8,-1.1970091041666668,['C'],['Zr'],"[4, 5]",anti-perovskite
ICSD-122473.cif,Rb4 Hf2 Si6 O18,30,-2.892222910333335,['Hf'],['O'],"[4, 5]",perovskite
ICSD-1270.cif,Rb2 Sc2 O4,8,-2.67708789,['Sc'],['O'],"[2, 3]",perovskite
ICSD-12759.cif,Bi2 Br12 Cs6,20,-1.45178548725,['Bi'],['Br'],"[6, 7]",perovskite
ICSD-12760.cif,Bi2 Br12 Cs6,20,-1.4518236137499998,['Bi'],['Br'],"[6, 7]",perovskite
ICSD-12857.cif,Os K2 F6,9,-2.300534391388889,['Os'],['F'],[2],perovskite
ICSD-12858.cif,Ru K2 F6,9,-2.3629386875,['Ru'],['F'],[2],perovskite
ICSD-12957.cif,Fe4 S8,12,-1.1298907591666665,['Fe'],['S'],"[0, 1, 2, 3]",perovskite
ICSD-12976.cif,Ba2 Li2 Ru10 O22,36,-1.3958767526851854,['Ru'],['O'],"[4, 5, 6, 7, 8, 9, 10, 11, 12, 13]",perovskite
ICSD-12980.cif,O28 Sr12 Zr8,48,-3.2673112872916668,['Zr'],['O'],"[12, 13, 14, 15, 16, 17, 18, 19]",perovskite
ICSD-130021.cif,Al F3,4,-3.5483153296875,['Al'],['F'],[0],perovskite
ICSD-130072.cif,F6 Li2 Pb,9,-2.432996541851852,"['Li', 'Pb']",['F'],"[0, 1, 2]",perovskite
ICSD-130073.cif,Pb2 Sr2 F12,16,-2.69826138875,['Pb'],['F'],"[2, 3]",perovskite
ICSD-130086.cif,Cd12 Se16 K8,36,-0.8474960782407407,['K'],['Se'],"[0, 1, 2, 3]",perovskite
ICSD-130186.cif,Ba3 Mn Si2 O8,14,-2.7018727224261085,['Mn'],['O'],[3],perovskite
ICSD-130352.cif,Cs3 Bi2 I6 Cl3,14,-1.1515375613392855,['Bi'],"['Cl', 'I']","[3, 4]",perovskite
ICSD-1303.cif,Ca2 Cu6 Ge8 O24,40,-1.3889149446250002,['Ge'],['O'],"[8, 9, 10, 11, 12, 13, 14, 15]",perovskite
ICSD-13041.cif,Ba3 Mn3 O18 C6,30,-1.7783351573965531,['Mn'],['O'],"[3, 4, 5]",perovskite
ICSD-131305.cif,Fe6 O18 C6,30,-1.6139779200000002,['Fe'],['O'],"[0, 1, 2, 3, 4, 5]",perovskite
ICSD-131476.cif,Ag3 In3 O6,12,-1.07768751625,['In'],['O'],"[0, 1, 2]",perovskite
ICSD-131797.cif,Hg4 As4 Fe4 O20,32,-1.1606763031250005,['Fe'],['O'],"[0, 1, 2, 3]",perovskite
ICSD-131798.cif,Hg4 As4 Mg4 O20 H4,36,-1.4203824461111108,['Mg'],['O'],"[0, 1, 2, 3]",perovskite
ICSD-131799.cif,Hg4 As4 Co4 O20 H4,36,-1.1096630627777782,['Co'],['O'],"[0, 1, 2, 3]",perovskite
ICSD-132098.cif,F18 Li3 Mo3,24,-2.663109504895833,"['Li', 'Mo']",['F'],"[0, 1, 2, 3, 4, 5]",perovskite
ICSD-132099.cif,Mo2 Na2 F12,16,-2.6268924684375,"['Na', 'Mo']",['F'],"[0, 1, 2, 3]",perovskite
ICSD-132100.cif,F32 H8 Mo4 Na4,48,-2.290045234999999,['Mo'],['F'],"[4, 5, 6, 7]",perovskite
ICSD-132101.cif,F18 Cs3 Mo3,24,-2.7092102710416675,['Mo'],['F'],"[3, 4, 5]",perovskite
ICSD-132102.cif,Mo4 Na4 F24,32,-2.644907909375,"['Na', 'Mo']",['F'],"[0, 1, 2, 3, 4, 5, 6, 7]",perovskite
ICSD-132103.cif,F18 Rb3 Mo3,24,-2.6934601111458334,['Mo'],['F'],"[3, 4, 5]",perovskite
ICSD-132285.cif,Tl6 Mg6 Cl18,30,-1.5134417424166664,['Mg'],['Cl'],"[0, 1, 2, 3, 4, 5]",perovskite
ICSD-1322.cif,Te4 Be16 O28,48,-2.183480272222221,['Te'],['O'],"[16, 17, 18, 19]",perovskite
ICSD-132328.cif,Tl6 I2 O2,10,-0.6337424867500001,['O'],['Tl'],"[8, 9]",anti-perovskite
ICSD-132366.cif,Y2 Cu6 Co8 O24,40,-1.584915162875,['Co'],['O'],"[2, 3, 4, 5, 6, 7, 8, 9]",perovskite
ICSD-132528.cif,Tl2 As4 O12,18,-1.123670004444445,"['As', 'Tl']",['O'],"[0, 2, 3, 4, 5]",perovskite
ICSD-132677.cif,Bi4 Ta4 O16,24,-2.288340872500001,['Ta'],['O'],"[0, 1, 2, 3]",perovskite
ICSD-132718.cif,In4 Cs8 Cl24 Na4,40,-1.6664333179999995,"['In', 'Na']",['Cl'],"[8, 9, 10, 11, 12, 13, 14, 15]",perovskite
ICSD-133382.cif,Ni4 V8 O24,36,-2.0341212180555552,['Ni'],['O'],"[8, 9, 10, 11]",perovskite
ICSD-133458.cif,Sr4 Ni2 Mo2 O12,20,-2.3407174500000005,['Mo'],['O'],"[6, 7]",perovskite
ICSD-133472.cif,Ru Cl6 Na N2 C2 H12,24,-0.5860247788541665,['Ru'],['Cl'],[13],perovskite
ICSD-133473.cif,Ru Br6 Na C2 N2 H12,24,-0.5012508818750003,['Ru'],['Br'],[13],perovskite
ICSD-133474.cif,Ru Ag Br6 N2 C2 H12,24,-0.3975716093749994,['Ru'],['Br'],[13],perovskite
ICSD-133476.cif,Ru Cl6 K N2 C2 H12,24,-0.5839948238541659,['Ru'],['Cl'],[13],perovskite
ICSD-133478.cif,Ru Br6 K N2 C2 H12,24,-0.4908569510416664,['Ru'],['Br'],[13],perovskite
ICSD-133479.cif,Ru Ag Cl6 N2 C2 H12,24,-0.4634170096875003,['Ru'],['Cl'],[13],perovskite
ICSD-133655.cif,Ni6 C6 O18,30,-1.0567519146666673,['Ni'],['O'],"[0, 1, 2, 3, 4, 5]",perovskite
ICSD-133746.cif,Pt9 Te12,21,-0.4340653545238091,['Pt'],"['Te', 'Pt']","[12, 13, 14, 15, 16, 17, 18, 19, 20]",perovskite
ICSD-133771.cif,Cr4 S12,16,-0.5238057506250007,['Cr'],['S'],"[0, 1, 2, 3]",perovskite
ICSD-13394.cif,Na2 Ba Co V2 O8,14,-2.3515231157142864,['Co'],['O'],[5],perovskite
ICSD-134083.cif,Na4 Nb4 F24,32,-3.2051326215624987,"['Na', 'Nb']",['F'],"[0, 1, 2, 3, 4, 5, 6, 7]",perovskite
ICSD-134084.cif,Na4 Ta4 F24,32,-3.2871999053125,"['Ta', 'Na']",['F'],"[0, 1, 2, 3, 4, 5, 6, 7]",perovskite