file_name,formula,atom_num,formation_energy,B_element,X_element,sites,perovskite_judge
ICSD-37005.cif,Cs8 Na4 Mn4 F24,40,-2.613645134896552,"['Na', 'Mn']",['F'],"[8, 9, 10, 11, 12, 13, 14, 15]",perovskite
ICSD-37023.cif,Ni4 Cr8 O16,28,-1.4440162471428577,['Cr'],['O'],"[0, 1, 2, 3, 4, 5, 6, 7]",perovskite
ICSD-37056.cif,Cs8 K4 Ga4 F24,40,-2.826343368875,"['K', 'Ga']",['F'],"[8, 9, 10, 11, 12, 13, 14, 15]",perovskite
ICSD-37071.cif,Ga4 Na8 O16 Li12,40,-1.825189373625,['Na'],['O'],"[4, 5, 6, 7]",perovskite
ICSD-37087.cif,Bi4 Fe4 Ga4 O18,30,-1.5940072131666672,['Fe'],['O'],"[4, 5, 6, 7]",perovskite
ICSD-37135.cif,Tl18 Te3 O18,39,-0.7905041112820513,['Te'],['O'],"[18, 19, 20]",perovskite
ICSD-37161.cif,Ba6 Sr2 Nb4 O18,30,-2.9642369480000004,['Sr'],['O'],"[6, 7]",perovskite
ICSD-37162.cif,Ba6 Sr2 Ta4 O18,30,-3.0278631666666675,['Sr'],['O'],"[6, 7]",perovskite
ICSD-37186.cif,Ag3 Te9,12,-0.0277216420833331,['Ag'],['Te'],"[0, 1, 2, 3, 4, 5, 6, 7, 8, 9, 10, 11]",perovskite
ICSD-37190.cif,Pt2 I12 K4,18,-0.7965360097222222,['Pt'],['I'],"[4, 5]",perovskite
ICSD-37191.cif,Pt4 I24 Rb8,36,-0.8184940913888885,['Pt'],['I'],"[8, 9, 10, 11]",perovskite
ICSD-37204.cif,K12 N4 O12,28,-1.0110720978571426,['O'],['K'],"[16, 17, 18, 19]",anti-perovskite
ICSD-37212.cif,Ni4 Nb8 O24,36,-2.3776902591666667,['Ni'],['O'],"[8, 9, 10, 11]",perovskite
ICSD-37250.cif,Al3 Li3 K6 F18,30,-3.2182782145,"['Li', 'Al']",['F'],"[6, 7, 8, 9, 10, 11]",perovskite
ICSD-37255.cif,Ni K F3,5,-2.2087752862500003,['Ni'],['F'],[1],perovskite
ICSD-37262.cif,Fe K F3,5,-2.68143297925,['Fe'],['F'],[1],perovskite
ICSD-37270.cif,Te2 K4 Br12,18,-1.0426413196296298,['Te'],['Br'],"[4, 5]",perovskite
ICSD-37327.cif,Li2 Mn O2,5,-1.6477044931264373,['Mn'],['O'],[2],perovskite
ICSD-37378.cif,I16 Cd8,24,-0.6014736258333334,['Cd'],['I'],"[0, 1, 2, 3, 4, 5, 6, 7]",perovskite
ICSD-37386.cif,I24 Cd12,36,-0.6011358630555554,['Cd'],['I'],"[0, 1, 2, 3, 4, 5, 6, 7, 8, 9, 10, 11]",perovskite
ICSD-37443.cif,Pt3 Ca3 F18,24,-2.4196670434375,"['Pt', 'Ca']",['F'],"[0, 1, 2, 3, 4, 5]",perovskite
ICSD-37444.cif,Pt3 Zn3 F18,24,-1.769165983020833,"['Zn', 'Pt']",['F'],"[0, 1, 2, 3, 4, 5]",perovskite
ICSD-37445.cif,Pt3 Cd3 F18,24,-1.7466333957291666,"['Pt', 'Cd']",['F'],"[0, 1, 2, 3, 4, 5]",perovskite
ICSD-37446.cif,Pt3 Mn3 F18,24,-1.7488770120581894,"['Mn', 'Pt']",['F'],"[0, 1, 2, 3, 4, 5]",perovskite
ICSD-37447.cif,Pt3 Co3 F18,24,-1.772064895729167,"['Pt', 'Co']",['F'],"[0, 1, 2, 3, 4, 5]",perovskite
ICSD-37448.cif,Pt3 Ni3 F18,24,-1.4957764696875,"['Pt', 'Ni']",['F'],"[0, 1, 2, 3, 4, 5]",perovskite
ICSD-380305.cif,In2 Zn4 Ga2 O10,18,-1.6036498159722217,['In'],['O'],"[4, 5]",perovskite
ICSD-380397.cif,Nb8 Br22 Rb2,32,-1.0637491659375002,['Nb'],['Br'],"[6, 7, 8, 9]",perovskite
ICSD-380402.cif,La6 W2 Fe2 S6 O12,28,-2.5343609907142857,['Fe'],['S'],"[6, 7]",perovskite
ICSD-380405.cif,La6 W2 Co2 S6 O12,28,-2.5720108428571424,['Co'],['S'],"[6, 7]",perovskite
ICSD-380530.cif,Sr3 Ta Ga3 Si2 O14,23,-2.6982782748369565,['Ta'],['O'],[3],perovskite
ICSD-3806.cif,In Ag Br6 N2 H12 C2,24,-0.4803968720833337,"['In', 'Ag']",['Br'],"[0, 1]",perovskite
ICSD-38105.cif,Cs8 Te4 I24,36,-0.8502422204629627,['Te'],['I'],"[8, 9, 10, 11]",perovskite
ICSD-38109.cif,Hg4 K8 Cl16,28,-1.3409856832142857,['K'],['Cl'],"[0, 1, 2, 3, 4, 5, 6, 7]",perovskite
ICSD-38116.cif,Cd2 I4,6,-0.6017472308333334,['Cd'],['I'],"[0, 1]",perovskite
ICSD-38219.cif,Ti Cl2,3,-1.4135133363888892,['Ti'],['Cl'],[0],perovskite
ICSD-38305.cif,Al6 F18,24,-3.5477773130208328,['Al'],['F'],"[0, 1, 2, 3, 4, 5]",perovskite
ICSD-38346.cif,Te4 K8 Br24,36,-1.0297344560185189,['Te'],['Br'],"[8, 9, 10, 11]",perovskite
ICSD-38349.cif,S20 Na8,28,-0.6966512699999997,['Na'],['S'],"[0, 1, 2, 3]",perovskite
ICSD-38413.cif,La6 Ga2 Mn2 S14,24,-1.768927223976294,['Mn'],['S'],"[6, 7]",perovskite
ICSD-38548.cif,Cs8 Si4 F24,36,-3.1634621675,['Si'],['F'],"[8, 9, 10, 11]",perovskite
ICSD-38549.cif,Tl8 Si4 F24,36,-2.6554233061111114,['Si'],['F'],"[8, 9, 10, 11]",perovskite
ICSD-38636.cif,Na4 Nb4 O8 F4,20,-2.5048274917500004,['Nb'],"['O', 'F']","[4, 5, 6, 7]",perovskite
ICSD-389.cif,Ti4 Na4 F16,24,-3.1356811040277783,['Ti'],['F'],"[4, 5, 6, 7]",perovskite
ICSD-391034.cif,Mn12 B4 O20,36,-1.8010504865996164,['Mn'],['O'],"[0, 1, 2, 3, 4, 5, 6, 7, 8, 9, 10, 11]",perovskite
ICSD-391303.cif,La8 Mn2 Se12 O2,24,-1.89527370033046,['Mn'],['Se'],"[8, 9]",perovskite
ICSD-391306.cif,La8 Fe2 Se12 O2,24,-1.9762426837500005,['Fe'],['Se'],"[8, 9]",perovskite
ICSD-391478.cif,Fe8 P4 O12 F8 H4,36,-1.9915661938624327,['Fe'],"['O', 'F']","[0, 1, 2, 3, 4, 5, 6, 7]",perovskite
ICSD-39174.cif,Sn2 O4,6,-1.6523566462500003,['Sn'],['O'],"[0, 1]",perovskite
ICSD-39242.cif,Ti6 Br18,24,-1.2194142220833328,['Ti'],['Br'],"[0, 1, 2, 3, 4, 5]",perovskite
ICSD-39426.cif,Ti6 Cl18,24,-1.5868120567708328,['Ti'],['Cl'],"[0, 1, 2, 3, 4, 5]",perovskite
ICSD-39427.cif,Ti6 Cl18,24,-1.5860636805208326,['Ti'],['Cl'],"[1, 2, 3, 4]",perovskite
ICSD-39428.cif,Ti4 Cl12,16,-1.587034203229166,['Ti'],['Cl'],"[0, 1, 2, 3]",perovskite
ICSD-39459.cif,Si6 Na6 B6 O24,42,-2.5283553920238093,['Na'],['O'],"[2, 3]",perovskite
ICSD-39467.cif,Cd2 Cu6 Ti8 O24,40,-2.0607583169583337,['Ti'],['O'],"[0, 1, 2, 3, 4, 5, 6, 7]",perovskite
ICSD-39524.cif,Bi2 K12 Cl16 F8 H6,44,-1.8276296851136364,"['Bi', 'K']",['Cl'],"[0, 1, 2, 3, 4, 5, 12, 13, 32, 33, 34, 35]",perovskite
ICSD-39534.cif,Ti4 Li4 P4 O20,32,-2.647511312782738,['Li'],['O'],"[0, 1, 2, 3]",perovskite
ICSD-39571.cif,Rh Na3 N6 O12,22,-0.7566781377272737,"['Rh', 'Na']",['O'],"[1, 2, 3]",perovskite
ICSD-39572.cif,Ir Na3 N6 O12,22,-0.7479715984090912,"['Na', 'Ir']",['O'],"[1, 2, 3]",perovskite
ICSD-39573.cif,Co Na3 N6 O12,22,-0.7943923911363633,"['Na', 'Co']",['O'],"[1, 2, 3]",perovskite
ICSD-39574.cif,Sb4 Li4 O12,20,-1.719307526166667,['Sb'],['O'],"[4, 5, 6, 7]",perovskite
ICSD-39666.cif,Zr2 Fe2 Cl12,16,-1.6635435846874995,"['Fe', 'Zr']",['Cl'],"[0, 1, 2, 3]",perovskite
ICSD-39673.cif,K Ta O3,5,-2.7324163330000006,['Ta'],['O'],[1],perovskite
ICSD-39699.cif,Ca2 Al2 Li2 F12,18,-3.59191355925926,"['Li', 'Al', 'Ca']",['F'],"[0, 1, 2, 3, 4, 5]",perovskite
ICSD-39765.cif,Fe6 Cl18,24,-0.9420518921874996,['Fe'],['Cl'],"[0, 1, 2, 3, 4, 5]",perovskite
ICSD-39808.cif,Tl4 Cd4 Br12,20,-0.8860388484999999,['Cd'],['Br'],"[4, 5, 6, 7]",perovskite
ICSD-39842.cif,Ru K4 N6 O12,23,-0.8910129630434789,['Ru'],['N'],[4],perovskite
ICSD-400264.cif,Na4 Ti2 Cl8,14,-1.525564415952381,['Ti'],['Cl'],"[4, 5]",perovskite
ICSD-400338.cif,Ba16 N16 B8 O4,44,-1.272246165227274,['O'],['Ba'],"[40, 41, 42, 43]",anti-perovskite
ICSD-40062.cif,K6 Pt12 S18,36,-0.9070297905555555,['Pt'],['S'],"[6, 7, 8]",perovskite
ICSD-400722.cif,Na8 Cu4 Sc4 F28,44,-2.87742859625,"['Na', 'Sc']",['F'],"[0, 1, 2, 3, 8, 9, 10, 11]",perovskite
ICSD-400729.cif,Na8 Zn4 Al4 F28,44,-2.9630479928409086,"['Al', 'Zn']",['F'],"[8, 9, 10, 11, 12, 13, 14, 15]",perovskite
ICSD-40106.cif,Si2 O4,6,-2.625911488333333,['Si'],['O'],"[0, 1]",perovskite
ICSD-401122.cif,Ba8 Cu2 Li2 C4 O20,36,-2.1060244728240742,['Li'],['O'],"[8, 9]",perovskite
ICSD-40125.cif,Ti4 O4,8,-2.3082390858333337,['Ti'],['O'],"[0, 1, 2, 3, 4, 5, 6, 7]",perovskite
ICSD-401591.cif,Hf4 Se16 Cl24,44,-0.9711684846969694,['Hf'],['Cl'],"[0, 1, 2, 3]",perovskite
ICSD-402039.cif,Ti6 B6 O18,30,-2.568804264166667,['Ti'],['O'],"[0, 1, 2, 3, 4, 5]",perovskite
ICSD-402063.cif,Na8 Zn4 Cl16,28,-1.5542697492857145,['Na'],['Cl'],"[0, 1, 2, 3, 4, 5, 6, 7]",perovskite
ICSD-40216.cif,Ge Rb I3,5,-0.79794814525,['Ge'],['I'],[1],perovskite
ICSD-402274.cif,Na12 Fe8 Se16,36,-0.7193307960185185,['Na'],['Se'],"[0, 1, 2, 3]",perovskite
ICSD-402407.cif,Cs6 Ti4 Cl18,28,-1.8480260394345245,['Ti'],['Cl'],"[6, 7, 8, 9]",perovskite
ICSD-402439.cif,W4 Rb8 Br24,36,-1.037513725833333,['W'],['Br'],"[8, 9, 10, 11]",perovskite
ICSD-402441.cif,W4 Cs8 Br24,36,-1.0782162261111112,['W'],['Br'],"[8, 9, 10, 11]",perovskite
ICSD-402533.cif,In4 Mg4 Br12,20,-1.1774980935,['Mg'],['Br'],"[0, 1, 2, 3]",perovskite
ICSD-402578.cif,Na4 Cu4 Hf4 Se12,24,-1.1074230325000003,['Hf'],['Se'],"[4, 5, 6, 7]",perovskite
ICSD-4027.cif,W4 F24,28,-2.7270559839285715,['W'],['F'],"[0, 1, 2, 3]",perovskite
ICSD-402917.cif,Se8 Mg4 O20,32,-1.344521131354167,['Mg'],['O'],"[0, 1, 2, 3]",perovskite
ICSD-403102.cif,Cs12 Mn4 I20,36,-1.0982642447461688,['I'],['Cs'],"[16, 17, 18, 19]",anti-perovskite
ICSD-403103.cif,Cs12 Cd4 I20,36,-1.2861899895833335,['I'],['Cs'],"[24, 25, 26, 27]",anti-perovskite
ICSD-403172.cif,K6 Ta2 F8 O4,20,-2.7763464015,"['Ta', 'K']","['O', 'F']","[4, 5, 6, 7]",perovskite
ICSD-403298.cif,Na8 W8 O24,40,-2.139100473,['W'],['O'],"[8, 9, 10, 11, 12, 13, 14, 15]",perovskite
ICSD-40330.cif,Ni4 Se8,12,-0.3125363344444445,['Ni'],['Se'],"[0, 1, 2, 3]",perovskite
ICSD-40344.cif,Fe2 Sb4 O12,18,-1.553818812777778,"['Sb', 'Fe']",['O'],"[0, 1, 2, 3, 4, 5]",perovskite
ICSD-403584.cif,Pb4 Ni4 O12,20,-1.0012880810000009,['Ni'],['O'],"[0, 1, 2, 3]",perovskite
ICSD-4035.cif,K4 Mg2 Cl8,14,-1.923936947857143,['Mg'],['Cl'],"[4, 5]",perovskite
ICSD-4036.cif,Rb4 Mg4 Cl12,20,-1.92625715725,['Mg'],['Cl'],"[4, 5, 6, 7]",perovskite
ICSD-40385.cif,Mo4 P4 Cl32 O4,44,-0.9560995231601732,['Mo'],"['Cl', 'O']","[0, 1, 2, 3]",perovskite
ICSD-4039.cif,Cs6 Cd6 Cl18,30,-1.48525904325,['Cd'],['Cl'],"[6, 7, 8, 9, 10, 11]",perovskite
ICSD-40469.cif,Ni12 O24 Sr3,39,-1.3098491338461546,['Ni'],['O'],"[3, 4, 5, 6, 7, 8, 9, 10, 11, 12, 13, 14]",perovskite
ICSD-40470.cif,Ni12 O24 Ca3,39,-1.3037706805128209,['Ni'],['O'],"[3, 4, 5, 6, 7, 8, 9, 10, 11, 12, 13, 14]",perovskite
ICSD-40476.cif,Mg K F3,5,-3.30217927625,['Mg'],['F'],[1],perovskite
ICSD-40520.cif,Tl12 I8 Se2,22,-0.6073887674242422,['Se'],['Tl'],"[12, 13]",anti-perovskite
ICSD-40521.cif,Tl12 Br8 S2,22,-0.7626131513636364,['S'],['Tl'],"[12, 13]",anti-perovskite
ICSD-40534.cif,Zn2 Sc2 Mo6 O16,26,-2.1690295084615387,"['Mo', 'Sc']",['O'],"[0, 1, 4, 5, 6, 7, 8, 9]",perovskite
ICSD-4053.cif,Cs8 K4 Mo4 F24,40,-2.53332526675,"['K', 'Mo']",['F'],"[8, 9, 10, 11, 12, 13, 14, 15]",perovskite
ICSD-4054.cif,K4 Mn4 F12,20,-2.449004721043104,['Mn'],['F'],"[4, 5, 6, 7]",perovskite
ICSD-4056.cif,Cs8 K4 Rh4 F24,40,-2.5238274240000003,"['K', 'Rh']",['F'],"[8, 9, 10, 11, 12, 13, 14, 15]",perovskite
ICSD-4057.cif,Pt3 Pb3 F18,24,-1.8336885927083328,['Pt'],['F'],"[0, 1, 2]",perovskite
ICSD-40657.cif,Ca4 Si2 O8,14,-2.907241515714286,['Si'],['O'],"[4, 5]",perovskite
ICSD-40658.cif,Si Ca O3,5,-2.804098564,['Si'],['O'],[1],perovskite
ICSD-4068.cif,Zr2 Br6,8,-1.4772087949999992,['Zr'],['Br'],"[0, 1]",perovskite
ICSD-40693.cif,Ba6 Ir Nb2 Cl2 O12,23,-2.604477772065217,['Ir'],['O'],[8],perovskite
ICSD-407015.cif,Ni4 V4 F28 Na8,44,-2.5450258898863645,"['V', 'Ni']",['F'],"[8, 9, 10, 11, 12, 13, 14, 15]",perovskite
ICSD-407016.cif,Cu4 V4 F28 Na8,44,-2.5276855107954543,"['V', 'Na']",['F'],"[0, 1, 2, 3, 8, 9, 10, 11]",perovskite
ICSD-4071.cif,Cs Sn Br3,5,-1.25093014925,['Sn'],['Br'],[1],perovskite
ICSD-408069.cif,Rb3 As3 F18,24,-2.4294648238541665,['As'],['F'],"[3, 4, 5]",perovskite
ICSD-408070.cif,Cs3 As3 F18,24,-2.4423365404166666,['As'],['F'],"[3, 4, 5]",perovskite
ICSD-408071.cif,Rb3 Sb3 F18,24,-2.5798106455208334,['Sb'],['F'],"[3, 4, 5]",perovskite
ICSD-40808.cif,Sr6 Cu3 Cl3 O6,18,-2.1996940050694445,['Cl'],['Sr'],"[9, 10, 11]",anti-perovskite
ICSD-408111.cif,F28 Na8 Ni4 Ga4,44,-2.5181693113636365,"['Ga', 'Na']",['F'],"[4, 5, 6, 7, 8, 9, 10, 11]",perovskite
ICSD-40823.cif,Ir3 Se8,11,-0.3638699043939394,['Ir'],['Se'],"[0, 1, 2]",perovskite
ICSD-40828.cif,Mg8 P4 O20 H4,36,-2.4163227694179903,['Mg'],['O'],"[0, 1, 2, 3]",perovskite
ICSD-40831.cif,Ag6 Ta6 O18,30,-2.0922460376666674,['Ta'],['O'],"[0, 1, 2, 3, 4, 5]",perovskite
ICSD-408553.cif,K8 Al4 F24 Li4,40,-3.2181589680833342,"['Li', 'Al']",['F'],"[8, 9, 10, 11, 12, 13, 14, 15]",perovskite
ICSD-408645.cif,Nb6 Cl16,22,-1.3255813772727272,['Nb'],['Cl'],"[0, 1, 2, 3, 4, 5]",perovskite
ICSD-408777.cif,Mo4 Tl8 Cl24,36,-0.9280261683333334,['Mo'],['Cl'],"[8, 9, 10, 11]",perovskite
ICSD-409229.cif,W4 Tl8 Cl24,36,-0.8891471405555558,['W'],['Cl'],"[8, 9, 10, 11]",perovskite
ICSD-409509.cif,Sn F6 N2 H8,17,-1.4145565130147062,['Sn'],['F'],[0],perovskite
ICSD-40966.cif,Rb8 Na4 Fe4 F24,40,-2.6593548625000003,"['Na', 'Fe']",['F'],"[8, 9, 10, 11, 12, 13, 14, 15]",perovskite
ICSD-40967.cif,Rb8 K4 Fe4 F24,40,-2.6502084009999995,"['K', 'Fe']",['F'],"[0, 1, 2, 3, 12, 13, 14, 15]",perovskite
ICSD-410569.cif,K2 V12 O22,36,-2.3654556750000006,['V'],['O'],"[8, 9, 10, 11]",perovskite
ICSD-41061.cif,Cr La O3,5,-2.507484897,['Cr'],['O'],[1],perovskite
ICSD-411230.cif,Hg2 As2 O6,10,-0.958244061,['As'],['O'],"[2, 3]",perovskite
ICSD-412050.cif,Ge4 V8 F8 O16,36,-2.2807447366666667,['V'],"['O', 'F']","[0, 1, 2, 3, 4, 5, 6, 7]",perovskite
ICSD-41209.cif,Pd4 F8,12,-1.0939995941666665,['Pd'],['F'],"[0, 1, 2, 3]",perovskite
ICSD-4121.cif,Sr4 Pb4 O12,20,-1.7488551185000003,['Pb'],['O'],"[4, 5, 6, 7]",perovskite
ICSD-41223.cif,Zn4 Sb8 O16,28,-1.3627959549999995,['Zn'],['O'],"[0, 1, 2, 3]",perovskite
ICSD-41228.cif,Ni4 Sb8 O16,28,-1.3271960075000009,['Ni'],['O'],"[0, 1, 2, 3]",perovskite
ICSD-41229.cif,S3 F18,21,-1.7602210908333331,['S'],['F'],"[0, 1, 2]",perovskite
ICSD-4122.cif,Sb8 Mg4 O16,28,-1.7929533464285714,['Mg'],['O'],"[0, 1, 2, 3]",perovskite
ICSD-4123.cif,Tl4 Sb4 O12,20,-1.304640441,['Sb'],['O'],"[4, 5, 6, 7]",perovskite
ICSD-413382.cif,Ca12 Si4 O4,20,-1.4800589455000002,['O'],['Ca'],"[16, 17, 18, 19]",anti-perovskite
ICSD-41370.cif,Pt6 Te6,12,-0.4166790249999999,['Pt'],['Te'],"[6, 7, 8, 9, 10, 11]",perovskite
ICSD-41371.cif,Pt12 Te18,30,-0.4341805806666661,['Pt'],['Te'],"[18, 19, 20, 21, 22, 23, 24, 25, 26, 27, 28, 29]",perovskite
ICSD-41375.cif,Pt S2,3,-0.5914379283333329,['Pt'],['S'],[0],perovskite
ICSD-41400.cif,Ir4 Sb4 S4,12,-0.6628719616666666,['Ir'],"['S', 'Sb']","[4, 5, 6, 7]",perovskite
ICSD-41409.cif,Li4 F4,8,-2.971673278541666,['Li'],['F'],"[0, 1, 2, 3, 4, 5, 6, 7]",perovskite
ICSD-41410.cif,Na4 F4,8,-2.731544185625,['Na'],['F'],"[0, 1, 2, 3, 4, 5, 6, 7]",perovskite
ICSD-41411.cif,Na4 Cl4,8,-1.815545169375,['Na'],['Cl'],"[0, 1, 2, 3, 4, 5, 6, 7]",perovskite
ICSD-41415.cif,Mg8 Ge4 O16,28,-2.3542027707142856,['Mg'],['O'],"[0, 1, 2, 3, 4, 5, 6, 7]",perovskite
ICSD-41416.cif,K8 Ni4 F24,36,-2.3103293727777774,['Ni'],['F'],"[8, 9, 10, 11]",perovskite
ICSD-41453.cif,Cd2 Cs2 Br6,10,-1.2893832154999998,['Cd'],['Br'],"[2, 3]",perovskite
ICSD-4149.cif,Ag3 Cr3 O6,12,-1.1214881208333332,['Cr'],['O'],"[0, 1, 2]",perovskite
ICSD-41536.cif,Rb12 Zn4 Br20,36,-1.5185779174999998,['Br'],['Rb'],"[24, 25, 26, 27]",anti-perovskite
ICSD-41570.cif,Cr2 Rb4 Cl8,14,-1.35524826,['Cr'],['Cl'],"[4, 5]",perovskite
ICSD-41571.cif,Cr2 Cs4 Cl8,14,-1.3658563678571427,['Cr'],['Cl'],"[4, 5]",perovskite
ICSD-416448.cif,Te6 Sr2 O16,24,-1.433059549166667,['Te'],['O'],"[6, 7]",perovskite
ICSD-4169.cif,Ba8 Mn4 Re4 O24,40,-2.2046287643965514,"['Mn', 'Re']",['O'],"[8, 9, 10, 11, 12, 13, 14, 15]",perovskite
ICSD-41731.cif,Co8 Se8 As8,24,-0.7079282001388894,['Co'],['Se'],"[0, 1, 2, 3, 4, 5, 6, 7]",perovskite
ICSD-41733.cif,Mg4 Te8,12,-0.5778889727777777,['Mg'],['Te'],"[0, 1, 2, 3]",perovskite
ICSD-417735.cif,N2 O6 F12 Si2 K6,28,-2.3861222950000003,['Si'],['F'],"[6, 7]",perovskite
ICSD-417952.cif,In3 As3 F18,24,-2.080444477604167,['As'],['F'],"[3, 4, 5]",perovskite
ICSD-418672.cif,Cr3 K3 F18,24,-2.4710239507291667,['Cr'],['F'],"[3, 4, 5]",perovskite
ICSD-418673.cif,Rb3 Cr3 F18,24,-2.4799547613541666,['Cr'],['F'],"[3, 4, 5]",perovskite
ICSD-418675.cif,Cs4 Cr4 F20,28,-2.5815538930357143,['Cr'],['F'],"[4, 5, 6, 7]",perovskite
ICSD-418796.cif,Tl10 Nb4 Br18 S8,40,-0.9355180960000002,['Br'],['Tl'],"[38, 39]",anti-perovskite
ICSD-418978.cif,P3 Ti6 Te6,15,-0.9194994399523808,['P'],['Ti'],"[12, 13, 14]",anti-perovskite
ICSD-418992.cif,Re4 Sr8 Li4 O24,40,-2.3507314953333336,"['Li', 'Re']",['O'],"[8, 9, 10, 11, 12, 13, 14, 15]",perovskite
ICSD-418994.cif,Re4 Ba8 O24 Li4,40,-2.3484223888333324,"['Li', 'Re']",['O'],"[8, 9, 10, 11, 12, 13, 14, 15]",perovskite
ICSD-41926.cif,Se12 Al6 Mg3,21,-0.964403986904762,['Mg'],['Se'],"[0, 1, 2]",perovskite
ICSD-41928.cif,Se5 Mg2 Al2,9,-1.0267331764814809,['Mg'],['Se'],"[0, 1, 4]",perovskite
ICSD-419467.cif,Os6 Ba18 N18 O3,45,-0.7541176896666671,['O'],['Ba'],"[42, 43, 44]",anti-perovskite
ICSD-419509.cif,V8 K8 F32,48,-2.928720811875,['V'],['F'],"[8, 9, 10, 11, 12, 13, 14, 15]",perovskite
ICSD-41958.cif,Ca4 Te4,8,-1.6510096883333336,['Ca'],['Te'],"[0, 1, 2, 3, 4, 5, 6, 7]",perovskite
ICSD-419636.cif,Re6 Ba18 N18 O3,45,-0.9198176854444442,['O'],['Ba'],"[42, 43, 44]",anti-perovskite
ICSD-419666.cif,La4 Y4 O12,20,-3.4457832339999994,['Y'],['O'],"[4, 5, 6, 7]",perovskite
ICSD-419995.cif,K3 Y3 Te6,12,-1.4194310591666668,"['K', 'Y']",['Te'],"[0, 1, 2, 3, 4, 5]",perovskite
ICSD-42004.cif,Sr Nb O3,5,-2.889736369,['Nb'],['O'],[1],perovskite
ICSD-42007.cif,Sr2 Nb5 O9,16,-2.6200809934375,['Nb'],['O'],[6],perovskite
ICSD-420137.cif,Na3 V3 O6,12,-2.0566285429166675,"['V', 'Na']",['O'],"[0, 1, 2, 3, 4, 5]",perovskite
ICSD-420296.cif,Sr As2 O6,9,-1.7823835899999996,"['As', 'Sr']",['O'],"[0, 1, 2]",perovskite
ICSD-4202.cif,Mg2 Cu4 O6,12,-1.2744691908333337,['Mg'],['O'],"[0, 1]",perovskite
ICSD-420597.cif,Ba3 P3 F30 B3,39,-3.053355539212453,['P'],['F'],"[6, 7, 8]",perovskite
ICSD-420643.cif,In4 P6 O24 B2,36,-2.1242924792658733,['In'],['O'],"[0, 1, 2, 3]",perovskite
ICSD-420650.cif,Zr6 Te6 P3,15,-1.1440991306190471,['Zr'],"['P', 'Te']","[0, 1, 2, 3, 4, 5, 12, 13, 14]",perovskite
ICSD-421241.cif,Ag10 Hg2 Sb2 O12,26,-0.5259797769230767,['Sb'],['O'],"[12, 13]",perovskite
ICSD-42143.cif,Rb8 Na4 Ti4 F24,40,-3.0423967454166667,"['Ti', 'Na']",['F'],"[8, 9, 10, 11, 12, 13, 14, 15]",perovskite
ICSD-42144.cif,Cs8 K4 Fe4 F24,40,-2.66181844275,"['K', 'Fe']",['F'],"[8, 9, 10, 11, 12, 13, 14, 15]",perovskite
ICSD-42147.cif,Rb8 K4 Co4 F24,40,-2.7540813205,"['K', 'Co']",['F'],"[0, 1, 2, 3, 12, 13, 14, 15]",perovskite
ICSD-42148.cif,Rb8 Na4 Co4 F24,40,-2.7577206135000005,"['Na', 'Co']",['F'],"[8, 9, 10, 11, 12, 13, 14, 15]",perovskite
ICSD-42149.cif,Rb8 K4 Ni4 F24,40,-2.4149767277500005,"['K', 'Ni']",['F'],"[0, 1, 2, 3, 12, 13, 14, 15]",perovskite
ICSD-42150.cif,Rb8 Na4 Ni4 F24,40,-2.42481751775,"['Na', 'Ni']",['F'],"[8, 9, 10, 11, 12, 13, 14, 15]",perovskite
ICSD-42151.cif,K8 Na4 Ni4 F24,40,-2.43890167175,"['Na', 'Ni']",['F'],"[8, 9, 10, 11, 12, 13, 14, 15]",perovskite
ICSD-42154.cif,Tl12 Ti4 F24,40,-2.3997633494166672,"['Ti', 'Tl']",['F'],"[0, 1, 2, 3, 12, 13, 14, 15]",perovskite
ICSD-42158.cif,Sr3 Rh3 F18,24,-2.5017803790625,['Rh'],['F'],"[3, 4, 5]",perovskite
ICSD-42159.cif,Mg3 Rh3 F18,24,-2.3306897103125,"['Rh', 'Mg']",['F'],"[0, 1, 2, 3, 4, 5]",perovskite
ICSD-42160.cif,Ca3 Rh3 F18,24,-2.4960704628125,"['Rh', 'Ca']",['F'],"[0, 1, 2, 3, 4, 5]",perovskite
ICSD-42161.cif,Zn3 Rh3 F18,24,-1.8559956215625,"['Rh', 'Zn']",['F'],"[0, 1, 2, 3, 4, 5]",perovskite
ICSD-42163.cif,Hg3 Rh3 F18,24,-1.5320649103125,"['Rh', 'Hg']",['F'],"[0, 1, 2, 3, 4, 5]",perovskite
ICSD-42164.cif,Ni3 Rh3 F18,24,-1.6999353740625,"['Rh', 'Ni']",['F'],"[0, 1, 2, 3, 4, 5]",perovskite
ICSD-421750.cif,K4 La2 Ta10 O30,46,-2.977006376739132,['Ta'],['O'],"[6, 7, 8, 9, 10, 11, 12, 13, 14, 15]",perovskite
ICSD-42175.cif,Cd9 I18,27,-0.6015346056481482,['Cd'],['I'],"[0, 1, 2, 3, 4, 5, 6, 7, 8]",perovskite
ICSD-421915.cif,W6 Sn4 Cl28,38,-0.8968534721052634,['W'],['Cl'],"[4, 5, 6, 7, 8, 9]",perovskite
ICSD-421923.cif,Sb6 In2 F36,44,-2.27681023375,"['In', 'Sb']",['F'],"[0, 1, 2, 3, 4, 5, 6, 7]",perovskite
ICSD-42199.cif,I12 Cd6,18,-0.6017901674999998,['Cd'],['I'],"[0, 1, 2, 3, 4, 5]",perovskite
ICSD-42205.cif,I24 Cd12,36,-0.6016290086111111,['Cd'],['I'],"[0, 1, 2, 3, 4, 5, 6, 7, 8, 9, 10, 11]",perovskite
ICSD-42207.cif,I6 Cd3,9,-0.6009314363888889,['Cd'],['I'],"[0, 1, 2]",perovskite
ICSD-422099.cif,La18 Sb10 O8 C2,38,-1.830086825526316,['Sb'],"['C', 'La']","[18, 19]",anti-perovskite
ICSD-42211.cif,I14 Cd7,21,-0.601298101309524,['Cd'],['I'],"[0, 1, 2, 3, 4, 5, 6]",perovskite
ICSD-42212.cif,I14 Cd7,21,-0.6013940703571431,['Cd'],['I'],"[0, 1, 2, 3, 4, 5, 6]",perovskite