file_name,formula,atom_num,formation_energy,B_element,X_element,sites,perovskite_judge
ICSD-200538.cif,Hg4 Cs12 Br20,36,-1.399399097222222,['Br'],['Cs'],"[16, 17, 18, 19]",anti-perovskite
ICSD-200637.cif,Tl Al F4,6,-2.995517464583333,['Al'],['F'],[0],perovskite
ICSD-200638.cif,Rb2 Al2 F8,12,-3.355958214583333,['Al'],['F'],"[2, 3]",perovskite
ICSD-20067.cif,Bi4 Fe8 O18,30,-1.5019846616666663,['Fe'],['O'],"[4, 5, 6, 7]",perovskite
ICSD-20068.cif,Bi4 Ga8 O18,30,-1.659619297333334,['Ga'],['O'],"[4, 5, 6, 7]",perovskite
ICSD-200707.cif,Ca8 Si4 O16,28,-3.0957909903571426,['Ca'],['O'],"[0, 1, 2, 3]",perovskite
ICSD-200794.cif,Cs4 Bi12 S20,36,-0.7277750213888888,['Bi'],['S'],"[12, 13, 14, 15]",perovskite
ICSD-200876.cif,Ba8 Na4 Re4 O24,40,-2.2954669350000003,"['Na', 'Re']",['O'],"[8, 9, 10, 11, 12, 13, 14, 15]",perovskite
ICSD-200999.cif,Re6 Li12 O18,36,-1.6314586819444452,['Re'],['O'],"[12, 13, 14, 15, 16, 17]",perovskite
ICSD-201025.cif,Cd6 P2 Cl6,14,-0.7427016126445576,['Cd'],['Cl'],[0],perovskite
ICSD-201057.cif,Cs6 Ru4 Cl18,28,-1.3433885602678568,['Ru'],['Cl'],"[6, 7, 8, 9]",perovskite
ICSD-201138.cif,Li4 Mg4 P4 O16,28,-2.58116727079932,"['Li', 'Mg']",['O'],"[0, 1, 2, 3, 4, 5, 6, 7]",perovskite
ICSD-201143.cif,K3 Ta3 B2 O12,20,-2.69979196,['Ta'],['O'],"[3, 4, 5]",perovskite
ICSD-201173.cif,W4 Na8 O8 F16,36,-2.655347564444444,['Na'],"['O', 'F']","[4, 5, 6, 7]",perovskite
ICSD-201253.cif,Rb Ca F3,5,-3.46412467125,['Ca'],['F'],[1],perovskite
ICSD-201308.cif,Cs8 Hf4 I24,36,-1.3190963277777774,['Hf'],['I'],"[8, 9, 10, 11]",perovskite
ICSD-201309.cif,Cs8 Pt4 I24,36,-0.8650416772222221,['Pt'],['I'],"[8, 9, 10, 11]",perovskite
ICSD-201329.cif,K4 Cd4 F12,20,-2.4560339522500003,['Cd'],['F'],"[4, 5, 6, 7]",perovskite
ICSD-201396.cif,Tl3 Cr3 S6,12,-0.4609859454166667,['Cr'],['S'],"[3, 4, 5]",perovskite
ICSD-201755.cif,Li2 Nb F6,9,-3.0096763049074067,"['Li', 'Nb']",['F'],"[0, 1, 2]",perovskite
ICSD-201756.cif,Na4 Nb2 F12,18,-2.9669480575,"['Na', 'Nb']",['F'],"[0, 1, 2, 3, 4, 5]",perovskite
ICSD-201764.cif,La2 Co2 O6,10,-2.6419809469999995,['Co'],['O'],"[2, 3]",perovskite
ICSD-201765.cif,La2 Co2 O6,10,-2.641974876,['Co'],['O'],"[2, 3]",perovskite
ICSD-201788.cif,Sb4 K8 P4 O24,40,-2.0017063234761907,['Sb'],['O'],"[8, 9, 10, 11]",perovskite
ICSD-201886.cif,Cs3 Sb3 F18,24,-2.6001105175,['Sb'],['F'],"[3, 4, 5]",perovskite
ICSD-201940.cif,La8 Ni4 O16,28,-2.713291823214285,['O'],"['Ni', 'La']","[12, 13, 14, 15, 16, 17, 18, 19]",anti-perovskite
ICSD-201970.cif,Zr P2 O6 H2,11,-2.2070391813203467,['Zr'],['O'],[0],perovskite
ICSD-201977.cif,Sc8 Cl12 B2,22,-1.7319505340909094,['Sc'],"['B', 'Cl']","[4, 5, 6, 7, 8, 9]",perovskite
ICSD-201979.cif,Sc8 Cl12 N2,22,-1.887407152727272,['N'],['Sc'],"[8, 9]",anti-perovskite
ICSD-202028.cif,Tl4 Na12 O8,24,-1.1307786212499995,['O'],"['Na', 'Tl']","[16, 17, 18, 19, 20, 21, 22, 23]",anti-perovskite
ICSD-202075.cif,Ca3 P Cl3,7,-2.016604918358844,['Ca'],"['P', 'Cl']","[0, 1, 2, 3]",perovskite
ICSD-202076.cif,Cs8 Te4 K8 O20,40,-1.4663297216666666,['Cs'],['O'],"[0, 1, 2, 3]",perovskite
ICSD-202189.cif,La4 Mo4 O14,22,-2.6460820940909087,['Mo'],['O'],"[4, 5, 6, 7]",perovskite
ICSD-202192.cif,Sb6 Mn3 O18,27,-1.4048726769220947,"['Sb', 'Mn']",['O'],"[0, 1, 2, 3, 4, 5, 6, 7, 8]",perovskite
ICSD-202200.cif,Ba8 Sb6 Li2 O24,40,-2.152504420666668,"['Li', 'Sb']",['O'],"[8, 9, 10, 11, 12, 13, 14, 15]",perovskite
ICSD-202201.cif,Ba8 Sb6 Na2 O24,40,-2.13427961,"['Na', 'Sb']",['O'],"[8, 9, 10, 11, 12, 13, 14, 15]",perovskite
ICSD-202214.cif,Pb8 Pt4 O16,28,-0.9564574725000006,['Pt'],['O'],"[0, 1, 2, 3]",perovskite
ICSD-20227.cif,Mn8 O16,24,-1.5206891738218395,['Mn'],['O'],"[0, 1, 2, 3, 4, 5, 6, 7]",perovskite
ICSD-202280.cif,Mg4 Ca4 Si4 O16,28,-2.9886968725000003,['Mg'],['O'],"[4, 5, 6, 7]",perovskite
ICSD-20229.cif,Mn2 O4,6,-1.567542569655173,['Mn'],['O'],"[0, 1]",perovskite
ICSD-202376.cif,Ni8 Si4 O16,28,-1.4924512975000006,['Ni'],['O'],"[4, 5, 6, 7, 8, 9, 10, 11]",perovskite
ICSD-202391.cif,Pb Sb2 O6,9,-1.4495937075,"['Pb', 'Sb']",['O'],"[0, 1, 2]",perovskite
ICSD-202407.cif,Pt2 O4,6,-0.5852656599999998,['Pt'],['O'],"[0, 1]",perovskite
ICSD-202454.cif,Tl Al F4,6,-2.995667737916667,['Al'],['F'],[0],perovskite
ICSD-202455.cif,Tl4 Al4 F16,24,-2.995790759166667,['Al'],['F'],"[0, 1, 2, 3]",perovskite
ICSD-202541.cif,Li3 V3 O6,12,-2.25564731,"['Li', 'V']",['O'],"[0, 1, 2, 3, 4, 5, 6, 7, 8, 9, 10, 11]",perovskite
ICSD-202666.cif,Nb4 Zn2 Mn6 O18,30,-2.0763664774597705,"['Nb', 'Mn']",['O'],"[0, 1, 2, 3, 4, 5, 8, 9]",perovskite
ICSD-202674.cif,Nb16 Sr2 O28,46,-2.614972801304348,['Nb'],['O'],"[14, 15, 16, 17]",perovskite
ICSD-202681.cif,Al12 F36,48,-3.5470980865625013,['Al'],['F'],"[0, 1, 2, 3, 4, 5, 6, 7, 8, 9, 10, 11]",perovskite
ICSD-202688.cif,Mg2 Ta4 O12,18,-2.9498095405555564,"['Ta', 'Mg']",['O'],"[0, 1, 2, 3, 4, 5]",perovskite
ICSD-202705.cif,Li2 Fe4 F12,18,-2.5759861695370367,"['Li', 'Fe']",['F'],"[0, 1, 2, 3, 4, 5]",perovskite
ICSD-202748.cif,Li4 Sb4 W4 O24,36,-1.910017057592594,['Sb'],['O'],"[4, 5, 6, 7]",perovskite
ICSD-202779.cif,Li2 Nb2 W2 O12,18,-2.452198193148148,['Nb'],['O'],"[2, 3]",perovskite
ICSD-202810.cif,Mo4 P8 O28,40,-2.0076923334523813,['Mo'],['O'],"[0, 1, 2, 3]",perovskite
ICSD-202862.cif,As6 Li6 O18,30,-1.5895522026666669,['As'],['O'],"[6, 7, 8, 9, 10, 11]",perovskite
ICSD-202868.cif,Ba8 Y4 Ru4 O24,40,-2.4402601287500003,"['Y', 'Ru']",['O'],"[8, 9, 10, 11, 12, 13, 14, 15]",perovskite
ICSD-20288.cif,Bi Fe O3,5,-1.2771144,['Fe'],['O'],[0],perovskite
ICSD-202906.cif,Na4 Ti8 O16,28,-2.7759311886904774,['Ti'],['O'],"[4, 5, 6, 7, 8, 9, 10, 11]",perovskite
ICSD-202907.cif,Cs V Mo2 O8,12,-2.157763265208333,['V'],['O'],[1],perovskite
ICSD-202917.cif,Cs6 Ge2 F14,22,-2.751570155340909,"['Cs', 'Ge']",['F'],"[0, 1, 6, 7, 20, 21]",perovskite
ICSD-20293.cif,Ti2 Sr4 O8,14,-3.0788274180952384,['Ti'],['O'],"[4, 5]",perovskite
ICSD-20294.cif,Ti4 Sr6 O14,24,-3.1222203873611107,['Ti'],['O'],"[6, 7, 8, 9]",perovskite
ICSD-203087.cif,Ba12 Ti4 S20,36,-2.02722585101852,['S'],['Ba'],"[16, 17, 18, 19]",anti-perovskite
ICSD-203094.cif,Co2 Sb4 O12,18,-1.4819670622222232,"['Sb', 'Co']",['O'],"[0, 1, 2, 3, 4, 5]",perovskite
ICSD-203108.cif,Ga8 K8 F32,48,-2.7565616433333333,['Ga'],['F'],"[8, 9, 10, 11, 12, 13, 14, 15]",perovskite
ICSD-20314.cif,W2 Cr4 O12,18,-1.920008546111112,"['W', 'Cr']",['O'],"[0, 1, 2, 3, 4, 5]",perovskite
ICSD-203170.cif,P2 F12 C2 N6 H12,34,-1.3443684296918774,['P'],['F'],"[0, 1]",perovskite
ICSD-20340.cif,Zr4 Si6 Na8 O24,42,-2.805072623333333,['Zr'],['O'],"[8, 9, 10, 11]",perovskite
ICSD-20368.cif,O Ag2,3,-0.0010915633333337,['O'],['Ag'],[2],anti-perovskite
ICSD-20372.cif,Bi Fe O3,5,-1.2771165840000005,['Fe'],['O'],[0],perovskite
ICSD-20386.cif,Bi9 Se12,21,-0.3172113545238096,['Bi'],['Se'],"[6, 7, 8, 15, 16, 17, 18, 19, 20]",perovskite
ICSD-20458.cif,Bi6 Se6,12,-0.320063438333334,['Bi'],['Se'],"[0, 1, 2, 3, 8, 9]",perovskite
ICSD-20459.cif,Sb6 Te6,12,-0.1044757825000003,['Sb'],['Te'],"[0, 1, 2, 3, 8, 9]",perovskite
ICSD-20467.cif,Tl8 Cr8 O32,48,-1.4454243752083331,['Tl'],['O'],"[0, 1, 2, 3]",perovskite
ICSD-20572.cif,Na Al F4,6,-3.2270331720833334,['Al'],['F'],[1],perovskite
ICSD-2064.cif,Cs2 Cu2 Cl6,10,-1.0801143857499995,['Cu'],['Cl'],"[2, 3]",perovskite
ICSD-20676.cif,Bi2 I6,8,-0.5023809553124998,['Bi'],['I'],"[0, 1]",perovskite
ICSD-20785.cif,Cd2 In2 Ga2 S8,14,-0.7186710205357143,['Cd'],['S'],"[0, 1]",perovskite
ICSD-20804.cif,Sn Si6 Na8 O18,33,-2.3982025028409097,['Sn'],['O'],[14],perovskite
ICSD-20826.cif,Tl20 Se12,32,-0.3350529925000001,['Tl'],['Se'],"[16, 17, 18, 19]",perovskite
ICSD-2085.cif,Sb6 Te6 Se3,15,-0.1902551393333339,['Sb'],"['Se', 'Te']","[0, 1, 2, 3, 4, 5, 12, 13, 14]",perovskite
ICSD-20873.cif,Cd8 Ge4 O16,28,-1.3850924096428574,['Cd'],['O'],"[0, 1, 2, 3, 4, 5, 6, 7]",perovskite
ICSD-20898.cif,Ni12 O24 Ba3,39,-1.30410813474359,['Ni'],['O'],"[3, 4, 5, 6, 7, 8, 9, 10, 11, 12, 13, 14]",perovskite
ICSD-21045.cif,Rh8 O12,20,-1.0033833749999992,['Rh'],['O'],"[0, 1, 2, 3, 4, 5, 6, 7]",perovskite
ICSD-21056.cif,Ba4 Ni2 F12,18,-3.2325549802777767,['Ni'],['F'],"[4, 5]",perovskite
ICSD-21057.cif,Ba4 Co2 F12,18,-3.3423508725,['Co'],['F'],"[4, 5]",perovskite
ICSD-21072.cif,Rb Fe F4,6,-2.46924486,['Fe'],['F'],[1],perovskite
ICSD-21475.cif,Br24 Tl4 Cs8 Ag4,40,-1.05287389425,"['Ag', 'Tl']",['Br'],"[8, 9, 10, 11, 12, 13, 14, 15]",perovskite
ICSD-21476.cif,Tl4 Ag4 Cs8 Cl24,40,-1.2317689792499995,"['Ag', 'Tl']",['Cl'],"[8, 9, 10, 11, 12, 13, 14, 15]",perovskite
ICSD-214.cif,S2 F12,14,-1.7669620796428571,['S'],['F'],"[0, 1]",perovskite
ICSD-21784.cif,Bi Te Al O6,9,-1.707700992685186,"['Bi', 'Al', 'Te']",['O'],"[0, 1, 2]",perovskite
ICSD-2186.cif,Rh3 Te8,11,-0.4178158966666665,['Rh'],['Te'],"[8, 9, 10]",perovskite
ICSD-22046.cif,Mn4 Ge2 O8,14,-1.6113644189901482,"['Mn', 'Ge']",['O'],"[0, 1, 2, 3, 4, 5]",perovskite
ICSD-22064.cif,Nb8 Na8 O24,40,-2.5943349887500005,['Nb'],['O'],"[8, 9, 10, 11, 12, 13, 14, 15]",perovskite
ICSD-22075.cif,Cs3 Sb2 Cl9,14,-1.4397770459821426,['Sb'],['Cl'],"[3, 4]",perovskite
ICSD-22086.cif,Cs2 Mg2 Cl6,10,-1.97141568725,['Mg'],['Cl'],"[2, 3]",perovskite
ICSD-22091.cif,Ru2 Cl6,8,-0.7165222146875001,['Ru'],['Cl'],"[0, 1]",perovskite
ICSD-22092.cif,Ru2 Cl6,8,-0.7156292909375002,['Ru'],['Cl'],"[0, 1]",perovskite
ICSD-22093.cif,Ru2 Cl6,8,-0.7164180971875003,['Ru'],['Cl'],"[0, 1]",perovskite
ICSD-22096.cif,Tc4 K8 Cl24,36,-1.2397883552777778,['Tc'],['Cl'],"[8, 9, 10, 11]",perovskite
ICSD-22101.cif,V Cl2,3,-0.9841179274999998,['V'],['Cl'],[0],perovskite
ICSD-22104.cif,Sn4 Rb8 I24,36,-0.8839553018055556,['Sn'],['I'],"[8, 9, 10, 11]",perovskite
ICSD-22106.cif,Ni3 Br6,9,-0.3244821522222223,['Ni'],['Br'],"[0, 1, 2]",perovskite
ICSD-22109.cif,K8 Na4 Al4 F24,40,-3.19828184175,"['Al', 'Na']",['F'],"[8, 9, 10, 11, 12, 13, 14, 15]",perovskite
ICSD-22111.cif,K8 Na4 Cu4 F24,40,-2.23781715075,"['Cu', 'Na']",['F'],"[8, 9, 10, 11, 12, 13, 14, 15]",perovskite
ICSD-22112.cif,K8 Na4 Sc4 F24,40,-3.32234854625,"['Na', 'Sc']",['F'],"[8, 9, 10, 11, 12, 13, 14, 15]",perovskite
ICSD-22114.cif,K8 Na4 Tl4 F24,40,-2.44257380675,"['Na', 'Tl']",['F'],"[8, 9, 10, 11, 12, 13, 14, 15]",perovskite
ICSD-22118.cif,Cs8 Na4 Tl4 F24,40,-2.47162362125,"['Na', 'Tl']",['F'],"[8, 9, 10, 11, 12, 13, 14, 15]",perovskite
ICSD-22168.cif,Rb4 I4,8,-1.529260091875,['Rb'],['I'],"[0, 1, 2, 3, 4, 5, 6, 7]",perovskite
ICSD-22197.cif,Ga2 F6,8,-2.588874515,['Ga'],['F'],"[0, 1]",perovskite
ICSD-22199.cif,K8 Na4 Cr4 F24,40,-2.65216580625,"['Na', 'Cr']",['F'],"[8, 9, 10, 11, 12, 13, 14, 15]",perovskite
ICSD-22216.cif,Na3 Al3 O6,12,-2.541217616875,['Al'],['O'],"[3, 4, 5]",perovskite
ICSD-22238.cif,Sc4 S4,8,-1.8888294012500009,['Sc'],['S'],"[0, 1, 2, 3, 4, 5, 6, 7]",perovskite
ICSD-22272.cif,Rb4 Pb4 Br12,20,-1.307948463,['Pb'],['Br'],"[4, 5, 6, 7]",perovskite
ICSD-22285.cif,Co3 O6 H3,12,-1.6538083593750006,['Co'],['O'],"[0, 1, 2]",perovskite
ICSD-22313.cif,O16 Ti4 Mn8,28,-2.1426030810139567,"['Ti', 'Mn']",['O'],"[0, 1, 2, 3, 4, 5, 6, 7]",perovskite
ICSD-22325.cif,Pb12 O16,28,-1.0627880089285708,['Pb'],['O'],"[0, 1, 2, 3]",perovskite
ICSD-22382.cif,Ti2 Zn2 O6,10,-2.405217406333334,['Ti'],['O'],"[0, 1]",perovskite
ICSD-2241.cif,Mn4 Rb6 Cl14,24,-1.3984697884734196,['Mn'],['Cl'],"[6, 7, 8, 9]",perovskite
ICSD-2278.cif,Cs3 Cr3 F12,18,-2.5152601820833334,['Cr'],['F'],"[3, 4, 5]",perovskite
ICSD-2279.cif,Ba6 Cu2 Sb4 O18,30,-1.9287746161666663,['Sb'],['O'],"[8, 9, 10, 11]",perovskite
ICSD-230038.cif,Rb4 Ca4 F12,20,-3.46699374125,['Ca'],['F'],"[4, 5, 6, 7]",perovskite
ICSD-230039.cif,Rb4 Ca4 F12,20,-3.46683549375,['Ca'],['F'],"[4, 5, 6, 7]",perovskite
ICSD-230094.cif,Ba Ti O3,5,-3.0943961223333343,['Ti'],['O'],[1],perovskite
ICSD-230114.cif,Rh3 Na3 O6,12,-1.371946147083334,"['Rh', 'Na']",['O'],"[0, 1, 2, 3, 4, 5]",perovskite
ICSD-230119.cif,Sr V O2 H,5,-1.9949767665,['V'],"['O', 'H']",[1],perovskite
ICSD-230212.cif,Fe8 Cu4 O16,28,-1.3693067882142864,['Fe'],['O'],"[0, 1, 2, 3, 4, 5, 6, 7]",perovskite
ICSD-230222.cif,Cr8 Cu4 O16,28,-1.4843876892857142,['Cr'],['O'],"[0, 1, 2, 3, 4, 5, 6, 7]",perovskite
ICSD-230228.cif,Sr4 In8 O16,28,-1.9769881235714288,['In'],['O'],"[4, 5, 6, 7, 8, 9, 10, 11]",perovskite
ICSD-230233.cif,Ca4 In8 O16,28,-1.997603053928572,['In'],['O'],"[4, 5, 6, 7, 8, 9, 10, 11]",perovskite
ICSD-230387.cif,Ba Sn O3,5,-2.17933723575,['Sn'],['O'],[1],perovskite
ICSD-230432.cif,Ir4 Y4 O24 Sr8,40,-2.35127012075,"['Y', 'Ir']",['O'],"[8, 9, 10, 11, 12, 13, 14, 15]",perovskite
ICSD-230446.cif,Tl4 Cr4 O12,20,-1.215766846000001,['Cr'],['O'],"[4, 5, 6, 7]",perovskite
ICSD-230480.cif,V8 B4 O16,28,-2.1758340435714283,['V'],['O'],"[0, 1, 2, 3, 4, 5, 6, 7]",perovskite
ICSD-230497.cif,Pb4 Cs4 Cl12,20,-1.5428282877499997,['Pb'],['Cl'],"[4, 5, 6, 7]",perovskite
ICSD-230540.cif,Fe2 Nb6 S12,20,-1.3558563295,['Fe'],['S'],"[6, 7]",perovskite
ICSD-230605.cif,Ba6 Os4 Zn2 O18,30,-1.844508389666668,"['Zn', 'Os']",['O'],"[6, 7, 8, 9, 10, 11]",perovskite
ICSD-230606.cif,Ag6 Ta6 O18,30,-2.0922894713333333,['Ta'],['O'],"[0, 1, 2, 3, 4, 5]",perovskite
ICSD-230607.cif,Ag8 Ta8 O24,40,-2.0908997154999995,['Ta'],['O'],"[0, 1, 2, 3, 4, 5, 6, 7]",perovskite
ICSD-230608.cif,Ag2 Ta2 O6,10,-2.0886392920000008,['Ta'],['O'],"[0, 1]",perovskite
ICSD-230609.cif,Ag Ta O3,5,-2.076122095,['Ta'],['O'],[0],perovskite
ICSD-230724.cif,Li4 Cu4 S4 O18,30,-1.449462696444445,['Li'],['O'],"[0, 1]",perovskite
ICSD-230738.cif,Zn4 Cr8 Se16,28,-0.352574316309524,['Cr'],['Se'],"[4, 5, 6, 7, 8, 9, 10, 11]",perovskite
ICSD-230817.cif,Fe4 Y4 O12,20,-2.6614499365,['Fe'],['O'],"[4, 5, 6, 7]",perovskite
ICSD-230897.cif,Ca4 Co4 O12,20,-1.9775502260000004,['Co'],['O'],"[4, 5, 6, 7]",perovskite
ICSD-230898.cif,Cs4 Bi2 Ag2 Br12,20,-1.1647694140000002,"['Ag', 'Bi']",['Br'],"[4, 5, 6, 7]",perovskite
ICSD-230901.cif,Cs8 Bi4 Ag4 Br24,40,-1.1639612392500005,"['Ag', 'Bi']",['Br'],"[8, 9, 10, 11, 12, 13, 14, 15]",perovskite
ICSD-230969.cif,Li4 Ni4 P4 O16,28,-2.00207800829932,['Li'],['O'],"[0, 1, 2, 3]",perovskite
ICSD-231011.cif,Ba Y Co2 O6,10,-2.253355664,['Co'],['O'],"[2, 3]",perovskite
ICSD-231012.cif,Ba Y Co2 O6,10,-2.2533580990000006,['Co'],['O'],"[2, 3]",perovskite
ICSD-231016.cif,Cs2 Rb4 Si2 F14,22,-3.065417287613636,"['Si', 'Cs']",['F'],"[0, 1, 6, 7, 8, 9]",perovskite
ICSD-231018.cif,Cs2 Pb2 Br6,10,-1.3326315780000002,['Pb'],['Br'],"[2, 3]",perovskite
ICSD-231025.cif,Cs4 Pb4 Br12,20,-1.3374335504999997,['Pb'],['Br'],"[4, 5, 6, 7]",perovskite
ICSD-2312.cif,La4 Sn2 S10,16,-1.6473634567187505,['Sn'],['S'],"[4, 5]",perovskite
ICSD-23133.cif,Rb2 Zn2 Be6 F18,28,-3.038387796696429,['Zn'],['F'],"[8, 9]",perovskite
ICSD-23167.cif,Tl Mn Cl3,5,-0.8445405895431033,['Mn'],['Cl'],[0],perovskite
ICSD-23168.cif,Tl4 Mn4 Cl12,20,-0.8986966070431034,['Mn'],['Cl'],"[0, 1, 2, 3]",perovskite
ICSD-23173.cif,Li4 Mo2 F12,18,-2.7231523232407406,"['Li', 'Mo']",['F'],"[0, 1, 2, 3, 4, 5]",perovskite
ICSD-23176.cif,Ge3 I6,9,-0.3630582247222221,['Ge'],['I'],"[0, 1, 2]",perovskite
ICSD-23182.cif,K6 Na2 Fe2 Cl12,22,-1.7261395202272731,['Fe'],['Cl'],"[8, 9]",perovskite
ICSD-23183.cif,K4 Mn2 F8,14,-2.5402772427093594,['Mn'],['F'],"[4, 5]",perovskite
ICSD-23206.cif,Na4 Os4 O12,20,-1.2448195165000002,['Os'],['O'],"[4, 5, 6, 7]",perovskite
ICSD-23286.cif,Ca4 Zr4 S12,20,-1.9755801105000004,['Zr'],['S'],"[4, 5, 6, 7]",perovskite
ICSD-23287.cif,Sr4 Zr4 S12,20,-2.0197237770000003,['Zr'],['S'],"[4, 5, 6, 7]",perovskite
ICSD-23322.cif,Na2 Ta2 O6,10,-2.7171322260000004,['Ta'],['O'],"[2, 3]",perovskite
ICSD-23326.cif,Cs Cu3 S2,6,-0.7077935925000002,['Cs'],['S'],[0],perovskite
ICSD-23406.cif,Li4 Ge2 F12,18,-2.7366675087962964,"['Li', 'Ge']",['F'],"[0, 1, 2, 3, 4, 5]",perovskite
ICSD-23411.cif,Cr4 Nb8 Se16,28,-0.6206338813095239,['Cr'],['Se'],"[8, 9]",perovskite
ICSD-23430.cif,K8 Na4 In4 F24,40,-2.7441275735000006,"['In', 'Na']",['F'],"[8, 9, 10, 11, 12, 13, 14, 15]",perovskite
ICSD-2343.cif,Rb8 Cr4 F20,32,-2.600397569218749,['Cr'],['F'],"[8, 9, 10, 11]",perovskite
ICSD-23450.cif,Na3 Sn3 S6,12,-0.8280517130208332,"['Na', 'Sn']",['S'],"[0, 1, 2, 3, 4, 5, 6, 7, 8, 9, 10, 11]",perovskite
ICSD-23451.cif,Li Sn S2,4,-0.8192253217708334,"['Li', 'Sn']",['S'],"[0, 1]",perovskite
ICSD-23462.cif,Pb4 Sn4 S12,20,-0.6007957427499996,['Sn'],['S'],"[0, 1, 2, 3]",perovskite
ICSD-23467.cif,Pb4 F12,16,-2.1167471246875,['Pb'],['F'],"[0, 1]",perovskite
ICSD-23473.cif,Rb4 Fe4 Cr8 O32,48,-1.796709136666666,['Fe'],['O'],"[12, 13, 14, 15]",perovskite
ICSD-23486.cif,Cu4 Rh8 O16,28,-0.9067969300000008,['Rh'],['O'],"[4, 5, 6, 7, 8, 9, 10, 11]",perovskite
ICSD-23487.cif,Ni4 Rh8 O16,28,-0.8926981028571426,['Rh'],['O'],"[4, 5, 6, 7, 8, 9, 10, 11]",perovskite
ICSD-23492.cif,Co4 Cr4 O16,24,-1.7547951904166663,['Co'],['O'],"[4, 5, 6, 7]",perovskite
ICSD-23493.cif,Ni4 Cr4 O16,24,-1.4820353029166669,['Ni'],['O'],"[4, 5, 6, 7]",perovskite
ICSD-23496.cif,Al10 O16 H2,28,-2.820228166071429,['Al'],['O'],"[0, 1, 2, 3, 4, 5, 6, 7]",perovskite
ICSD-234998.cif,Ba8 Al8 S24 Na8,48,-1.6777158693750005,['Na'],['S'],"[8, 9, 10, 11]",perovskite
ICSD-234999.cif,Ba8 Se24 Al8 Na8,48,-1.4129979483333333,['Na'],['Se'],"[12, 13, 14, 15]",perovskite
ICSD-235000.cif,Ba8 Ga8 S24 Na8,48,-1.4964656693749998,['Na'],['S'],"[12, 13, 14, 15]",perovskite
ICSD-235001.cif,Ba8 Ga8 Se24 Na8,48,-1.2810818397916666,['Na'],['Se'],"[12, 13, 14, 15]",perovskite
ICSD-23525.cif,Mg8 Ge4 S16,28,-1.146742685,['Mg'],['S'],"[0, 1, 2, 3, 4, 5, 6, 7]",perovskite
ICSD-235836.cif,Ba Zr O3,5,-0.2939511969999998,['Ba'],['O'],[0],perovskite
ICSD-235862.cif,Na4 Cr8 O16,28,-1.820628663928572,['Cr'],['O'],"[4, 5, 6, 7, 8, 9, 10, 11]",perovskite
ICSD-23591.cif,Mn O2 H2,5,-1.084948382793104,['Mn'],['O'],[0],perovskite
ICSD-235927.cif,Cu3 Fe3 O6,12,-1.254892787291667,['Fe'],['O'],"[0, 1, 2]",perovskite
ICSD-235989.cif,Ba8 Y4 Ir4 O24,40,-2.37270175225,"['Y', 'Ir']",['O'],"[8, 9, 10, 11, 12, 13, 14, 15]",perovskite
ICSD-236055.cif,Ni4 Nb8 O24,36,-2.360917208055556,['Ni'],['O'],"[8, 9, 10, 11]",perovskite
ICSD-23605.cif,Hg3 S2 Si F6,12,-1.8317811777083328,['Si'],['F'],[0],perovskite
ICSD-236086.cif,Rb8 Ca4 P4 O16 F4,36,-2.689162952890212,['Ca'],"['O', 'F']","[8, 9, 10, 11]",perovskite
ICSD-236160.cif,La4 Fe4 O12,20,-2.541567815,['Fe'],['O'],"[4, 5, 6, 7]",perovskite
ICSD-236174.cif,La6 Fe6 O18,30,-2.539114780666667,['Fe'],['O'],"[6, 7, 8, 9, 10, 11]",perovskite
ICSD-236253.cif,Sn Bi4 Te7,12,-0.2477533717013885,"['Bi', 'Sn']",['Te'],"[0, 1, 2, 3, 4, 5, 6, 7]",perovskite
ICSD-236277.cif,Ga10 O16 H2,28,-1.7489276018749995,['Ga'],['O'],"[0, 1, 2, 3, 4, 5]",perovskite
ICSD-236294.cif,Li2 Ba Mg P2 O8,14,-2.6456827050850342,['Mg'],['O'],[3],perovskite
ICSD-236386.cif,Ta4 O10,14,-2.6223193614285707,['Ta'],['O'],"[0, 1, 2, 3]",perovskite
ICSD-236436.cif,Sr4 Co2 Os2 O12,20,-1.9786927515,"['Os', 'Co']",['O'],"[4, 5, 6, 7]",perovskite
ICSD-236590.cif,Y4 Al4 O12,20,-3.3482679545000003,['Al'],['O'],"[4, 5, 6, 7]",perovskite
ICSD-2365.cif,W3 Cl18,21,-0.9157459772619048,['W'],['Cl'],"[0, 1, 2]",perovskite
ICSD-236759.cif,Sr4 Tc4 O12,20,-2.1045889775,['Tc'],['O'],"[4, 5, 6, 7]",perovskite
ICSD-236871.cif,Mg4 Cr8 O16,28,-1.9182409957142847,['Cr'],['O'],"[4, 5, 6, 7, 8, 9, 10, 11]",perovskite
ICSD-236949.cif,Sr Mn O3,5,-2.126929895793104,['Mn'],['O'],[1],perovskite
ICSD-237099.cif,Al8 Si4 O16 F8,36,-3.1394693486111103,['Al'],"['O', 'F']","[0, 1, 2, 3, 4, 5, 6, 7]",perovskite
ICSD-237284.cif,La4 Sc4 O12,20,-3.4723270055,['Sc'],['O'],"[4, 5, 6, 7]",perovskite
ICSD-237285.cif,Y4 Sc4 O12,20,-3.554474082000002,['Sc'],['O'],"[4, 5, 6, 7]",perovskite
ICSD-237338.cif,Mn4 Cr4 O16,24,-1.7517897323275868,['Mn'],['O'],"[0, 1, 2, 3]",perovskite
ICSD-237351.cif,In4 Rh4 O12,20,-1.258074966,['Rh'],['O'],"[4, 5, 6, 7]",perovskite
ICSD-2373.cif,Sn2 Ca2 O6,10,-2.27390198975,['Sn'],['O'],"[2, 3]",perovskite
ICSD-237494.cif,Ca2 Pd6 Ti8 O24,40,-2.2882305593333334,['Ti'],['O'],"[2, 3, 4, 5, 6, 7, 8, 9]",perovskite
ICSD-237495.cif,Ca2 Pd6 V8 O24,40,-1.8915951607500008,['V'],['O'],"[2, 3, 4, 5, 6, 7, 8, 9]",perovskite
ICSD-23762.cif,Pb5 I10,15,-0.6907683883333334,['Pb'],['I'],"[0, 1, 2, 3, 4]",perovskite
ICSD-23763.cif,Pb7 I14,21,-0.6907683135714284,['Pb'],['I'],"[0, 1, 2, 3, 4, 5, 6]",perovskite