file_name,formula,formation_energy
ICSD-628469.cif,Cu2 Nb6 S8,-0.7882975078124996
ICSD-391382.cif,Na8 Te8 O28,-1.2610448862121215
ICSD-257146.cif,Ba8 Sc4 Ir4 O24,-2.365544261
ICSD-290491.cif,Li4 Ru8 O16,-1.307285996904762
ICSD-405782.cif,Pb4 Co2 Te2 O12,-1.1698219526666669
ICSD-628791.cif,Cu4 S8,-0.2841068133333333
ICSD-412940.cif,Re2 I12 N4 H16,-0.2863339142647063
ICSD-291311.cif,Ca2 Cu6 Rh8 O24,-1.055726969125
ICSD-405777.cif,Ta6 F18 O9 Li6,-3.173528504294872
ICSD-416605.cif,Ga4 Rb8 K4 F24,-2.8109884486250003
ICSD-259122.cif,Na6 Ti9 Cl24,-1.4565476333333331
ICSD-616936.cif,Bi6 Pb3 Te12,-0.2866268444047614
ICSD-626708.cif,Cr12 Se18,-0.2550612363333338
ICSD-263778.cif,Ba8 Ca4 Te4 O24,-2.3850788056666667
ICSD-626229.cif,La4 Cr4 Se12,-1.0861835340000006
ICSD-760220.cif,Cs4 Ge4 Na4 F24,-2.737254706111111
ICSD-616163.cif,Ba4 Te4,-1.7903493383333338
ICSD-633095.cif,Fe6 P6 Se18,-0.4906501972857143
ICSD-418474.cif,Tl2 Sc2 S4,-1.5255188724999995
ICSD-264198.cif,Bi Br Te,-0.5100044505555553
ICSD-651529.cif,Sb6 Se6 Te3,-0.1933481766666664
ICSD-651938.cif,Sn4 Tl16 Se12,-0.3498010542187502
ICSD-600243.cif,Pb4 S4,-0.6807551049999998
ICSD-651203.cif,Ti S2,-1.4757923255555558
ICSD-261469.cif,Ti4 K8 F20,-3.080169875989584
ICSD-620234.cif,Cd6 P6 Se18,-0.312413291285714
ICSD-254310.cif,Sc4 Co4 O12,-2.7028377160000003
ICSD-253188.cif,Na3 Cr3 O6,-1.712967010000001
ICSD-428575.cif,Pt3 Na6 F18,-2.1611467852777784
ICSD-653213.cif,Zr Te2,-0.9518745544444442
ICSD-281038.cif,K4 Sn4 As4 S20,-0.6695844695312498
ICSD-412328.cif,La3 Sn Ga5 O14,-2.3754064209782606
ICSD-413874.cif,Tl8 Ca4 O16,-1.3338025257142847
ICSD-604993.cif,Cr3 Ag3 Se6,-0.0793983600000001
ICSD-280099.cif,Ta8 Na8 O24,-2.72082749025
ICSD-410392.cif,Ni6 F18 Cs6,-2.0928242500833334
ICSD-259367.cif,Pd4 Hg2 Se6,-0.3491245541666667
ICSD-412254.cif,O6 H12 N18 Li6,-0.5372064294047625
ICSD-406722.cif,Ru2 Te4,-0.4304639161111107
ICSD-264747.cif,Na8 Nb8 O24,-2.5973773892500005
ICSD-626718.cif,Cr Se2,-0.3129730494444451
ICSD-425703.cif,Mn8 P4 F8 O12 H4,-1.782106157799215
ICSD-652213.cif,Zn4 Se8,-0.326327038611111
ICSD-412285.cif,Zr4 Se16 Cl24,-0.9647748735606062
ICSD-256029.cif,Li4 F12 Ti2,-3.266965539537037
ICSD-254370.cif,Ta6 Ba3 V6 O33,-2.8163551167708336
ICSD-410934.cif,Mn12 Si4 O16 F8,-2.063375704189656
ICSD-609280.cif,Al6 Zn3 S12,-1.062945909285714
ICSD-413082.cif,Ag6 Mo2 Cl F3 O7,-1.2937161422368415
ICSD-414042.cif,Ru4 Br12,-0.49660194875
ICSD-423430.cif,Pb12 B6 O18 F6,-1.9251898073214293
ICSD-624859.cif,Co8 S8 Sb8,-0.7923463533333331
ICSD-434114.cif,Os6 Sr10 O26,-1.9678511183333336
ICSD-420953.cif,Sc6 Al6 O10 C4,-2.303355504038462
ICSD-419683.cif,Sc6 Al6 O6 C6,-1.6943006952083337
ICSD-257078.cif,Pb8 Co8 O24,-1.29876254275
ICSD-409840.cif,W4 K8 Cl24,-1.3115900119444446
ICSD-413464.cif,In2 Ba2 Co8 O14,-1.6093648134615388
ICSD-257851.cif,V4 Na8 Ca4 F4 O16,-2.672019064305556
ICSD-650286.cif,Rh8 Se16,-0.5328421906944444
ICSD-602266.cif,In2 Se3,-0.4805404640000006
ICSD-258693.cif,Sr4 Cu2 Te2 O12,-1.7983399799166668
ICSD-416147.cif,Hg4 Cr4 O16,-1.2527889212500003
ICSD-408193.cif,Ag2 Ba Mn V2 O8,-1.9342974295689663
ICSD-652055.cif,Ti12 Se12,-0.9498571108333328
ICSD-300207.cif,In4 Sb4 S12,-0.5714196999999999
ICSD-409671.cif,Ga4 O8 H4,-1.5120880946875
ICSD-611203.cif,Pd4 As4 Se4,-0.3714311455555552
ICSD-409632.cif,W4 Rb8 Cl24,-1.3369621511111107
ICSD-619570.cif,Ca4 Se4,-2.029400938333333
ICSD-617052.cif,Bi3 Tl3 S6,-0.5542796837500005
ICSD-416170.cif,V4 O20 Na20,-1.923865282272727
ICSD-417150.cif,Ta8 Fe2 S16,-1.3017309738461544
ICSD-651059.cif,S4 Sr4,-2.28796551875
ICSD-419862.cif,Mg3 Ba9 Si6 O24,-2.9429503101190475
ICSD-257251.cif,Li4 Fe4 P4 O16,-2.22300989329932
ICSD-259381.cif,Ba8 Mg4 Os4 O24,-2.1812702987499994
ICSD-603572.cif,Ta2 O4,-2.6447044633333348
ICSD-426821.cif,Li8 B4 F20,-2.939346915364584
ICSD-279639.cif,Sb4 Cl24 N4 C4,-0.3500190705555555
ICSD-261371.cif,Na4 Ir4 O12,-1.1051316720000002
ICSD-430096.cif,La8 Bi4 Cu4 S20,-1.4967491855555557
ICSD-619354.cif,Ca4 Hf4 S12,-1.976696742
ICSD-280395.cif,Zr2 P4 O14,-2.71274939945238
ICSD-291488.cif,Ba8 Y4 Os4 O24,-2.4515520820000005
ICSD-416221.cif,La12 N4 S12,-2.051341438928571
ICSD-650233.cif,Rh4 Sb4 S4,-0.7453965666666663
ICSD-604401.cif,Ag3 In3 Se6,-0.3424484154166668
ICSD-252881.cif,Na Cr Te2,-0.1530735533333329
ICSD-426618.cif,Li4 In2 Mo6 O16,-1.9812652847619048
ICSD-427048.cif,Sb8 Ni6 F12 O12,-1.629920508026316
ICSD-638009.cif,Ge12 Te12,-0.0757156241666662
ICSD-268018.cif,Rb8 Co4 F24,-2.415445687222222
ICSD-410924.cif,Fe6 Br18,-0.6908701608333333
ICSD-416038.cif,Rb3 Na Ru2 O8,-1.3398601882142858
ICSD-638851.cif,Hf S2,-1.829953803333333
ICSD-401590.cif,Zr4 Se16 Cl24,-0.9647128633333334
ICSD-290590.cif,Zn4 Cr8 O16,-1.6860960114285717
ICSD-600773.cif,Cd2 S2,-0.6375040875
ICSD-410389.cif,Co9 F27 Cs9,-2.42414872475
ICSD-279600.cif,Pb4 Ga4 O16 B4,-1.9123803316071428
ICSD-603955.cif,La6 Ni2 Fe2 S14,-1.6386638170833323
ICSD-300182.cif,K12 Sb4 Te12,-0.7914003174999996
ICSD-416326.cif,Ba4 Sc8 Te16,-1.422707069880952
ICSD-608507.cif,Al6 Mn3 S12,-1.0222509705665026
ICSD-281176.cif,Cs2 Cd2 Br6,-1.2891533435
ICSD-652075.cif,Se6 Y3 Tl3,-1.4058502870833334
ICSD-254956.cif,Mo S2,-0.76351538
ICSD-410591.cif,Cs10 Nb4 Cl18 S8,-1.6067408269375
ICSD-433032.cif,Na4 F12 H8,-2.060107371041666
ICSD-619542.cif,Ca8 Si4 S16,-1.7093194757142862
ICSD-254378.cif,Y10 Mo4 O24,-3.1321152273684207
ICSD-281126.cif,Ba6 Li2 Ru4 O18,-1.919066566222223
ICSD-281335.cif,P4 F24 O4 H8 Na4,-2.260625710205628
ICSD-619557.cif,Ca4 Y8 S16,-2.2798809278571426
ICSD-417711.cif,Sc6 Te3 O18,-2.4982096607407405
ICSD-280847.cif,Cs4 Se12 Y4 Zn4,-1.4379984233333338
ICSD-262133.cif,Ba6 N3 F3,-1.7080308686458334
ICSD-633323.cif,Fe2 Ta6 S12,-1.303287361000001
ICSD-653090.cif,Tl20 Te12,-0.2758317628124995
ICSD-616134.cif,Ba4 Y8 Se16,-2.0004869730952386
ICSD-252665.cif,Cd4 Co4 As4 O20 H4,-1.3075647522222222
ICSD-411796.cif,Ag2 Ta2 F12,-2.7906731865625
ICSD-415874.cif,Au3 K3 F18,-1.5078152094791664
ICSD-603954.cif,La6 Co2 Fe2 S14,-1.6839855541666668
ICSD-419852.cif,Li20 O4 Cl12,-1.7211171447685187
ICSD-254299.cif,Ba2 Mg2 O12 F4 Be4 B4,-2.938787280892857
ICSD-420297.cif,Sr2 As4 O12,-1.7828323461111109
ICSD-254992.cif,Ba3 Mg3 O18 C6,-2.1627509068333333
ICSD-633498.cif,Se16 Ti8 Fe4,-1.0719677925000002
ICSD-608317.cif,La6 Ni2 Al2 S14,-1.7666475356250004
ICSD-257025.cif,Li4 Cu4 Bi4 O16,-1.0102077433333332
ICSD-617074.cif,Se9 Bi12,-0.2713596238095238
ICSD-252880.cif,Li Cr Te2,-0.1895442729166668
ICSD-639178.cif,Ta3 S6 Hg3,-0.9227171708333336
ICSD-255100.cif,Sc6 K10 F28,-3.5068520046590907
ICSD-413384.cif,Sr12 Si4 O4,-1.32819365
ICSD-419506.cif,V6 K10 F28,-2.920745296931818
ICSD-414043.cif,Ru2 Br6,-0.4730400225000002
ICSD-267980.cif,Bi8 Rb8 Se20 Zn4,-0.7835098100833335
ICSD-259387.cif,Ba8 Zn4 Os4 O24,-1.8642073557500003
ICSD-650457.cif,Rh4 Te8,-0.4738140969444438
ICSD-620205.cif,Cd4 O4,-1.0261678300000003
ICSD-633475.cif,Se8 Fe4,-0.7779597944444442
ICSD-281433.cif,Cs4 Y4 Cd4 Se12,-1.3814654570833331
ICSD-254188.cif,Ba8 Sc4 Ru4 O24,-2.440360075
ICSD-253809.cif,Cs2 W6 O18,-2.2850589563461536
ICSD-651447.cif,S8 Zn4,-0.5462309708333333
ICSD-418010.cif,La2 I2 P,-1.5795819834523812
ICSD-602931.cif,Sr4 Te4,-1.7455287045833332
ICSD-257373.cif,K6 Si2 F14,-3.0664743169318185
ICSD-262319.cif,Ba8 Ca4 Mo4 O24,-2.723679008250001
ICSD-653098.cif,Te6 Y3 Tl3,-1.0758495854166668
ICSD-409454.cif,Rb12 Fe8 Se16,-0.8565150057407406
ICSD-608513.cif,Y6 Mn2 Al2 S14,-1.8306327330387933
ICSD-403158.cif,Rb8 Bi2 Ag4 Br18,-1.2149898915625004
ICSD-407802.cif,Mn3 Ba6 Te3 O18,-1.849209675896552
ICSD-257115.cif,Cs8 In4 Ag4 Cl24,-1.4000408604999997
ICSD-258893.cif,Ca4 Zr4 F24,-3.9245232490625
ICSD-605619.cif,Ni3 Ag3 Te6,-0.1425752612499996
ICSD-609250.cif,Al12 S18,-1.189612306
ICSD-414041.cif,Ru4 Cl12,-0.7159079759375002
ICSD-616097.cif,Ba2 V2 S6,-1.5624317169999995
ICSD-651015.cif,S4 Sn4,-0.5414801406250005
ICSD-262090.cif,Pb Ti O3,-2.3118241788333336
ICSD-254445.cif,Sc4 Ca4 B4 O16,-3.126702136428572
ICSD-262061.cif,Zr4 W8 O32,-2.536150374772727
ICSD-257144.cif,Sn12 K8 O28,-1.6959888388541664
ICSD-409808.cif,Cs8 Mo4 Cl24,-1.4103795844444444
ICSD-417289.cif,Na12 F4 W4 O16,-2.285353160416667
ICSD-427679.cif,Tl20 Br4 Te8,-0.4450618351041665
ICSD-620305.cif,S8 Cd4,-0.5088257200000003
ICSD-410783.cif,Sr10 P6 O24 S,-2.906159104599304
ICSD-253272.cif,Sr6 Fe4 Te2 O18,-2.0457126711111107
ICSD-424701.cif,Cs6 Ag2 Mn8 O32,-1.459404922640087
ICSD-616124.cif,Ba4 Se4,-2.0483461170833333
ICSD-638863.cif,Sr4 Hf4 S12,-2.0172213080000003
ICSD-434755.cif,Li12 P6 S18,-1.0253263732936508
ICSD-710063.cif,K8 Cd12 Se16,-0.8475121357407408
ICSD-620523.cif,Cd4 Te4,-0.2748003108333332
ICSD-426706.cif,In12 Na4 S20,-0.8383352600000001
ICSD-402399.cif,Li8 Zn4 Cl16,-1.5318456898809525
ICSD-410590.cif,Cs10 Nb4 Br18 S8,-1.4258415153749997
ICSD-258733.cif,Ba6 Ti4 Mn2 O18,-2.7642240411532573
ICSD-281247.cif,Ba6 Li2 Os4 O18,-1.944027045555556
ICSD-628782.cif,Cu2 S4,-0.2952009341666664
ICSD-633869.cif,Te8 Fe4,-0.5437214877777775
ICSD-259109.cif,Na2 Nb2 O6,-2.5904006820000007
ICSD-653072.cif,Ti2 Te2,-0.612556749166667
ICSD-416325.cif,Sr4 Sc8 Te16,-1.390823458095238
ICSD-430537.cif,Y2 K6 Si4 O14,-2.7262550188461536
ICSD-281039.cif,Sn As2 S6 K2,-0.7550017003409092
ICSD-281440.cif,Hg4 Cs4 Y4 Se12,-1.2500806666666666
ICSD-264199.cif,Bi12 Te6 Br6,-0.3590499620833333
ICSD-253817.cif,Ba6 Zn2 Ir4 O18,-1.7239691820000005
ICSD-262626.cif,Co4 Sb8 O16,-1.4187660225
ICSD-261341.cif,Ca4 Tc4 O12,-2.104346054500001
ICSD-261909.cif,Co8 As4 O20 H4,-1.333798308055556
ICSD-602041.cif,Fe Ga2 S4,-0.9868221989285716
ICSD-257885.cif,La8 Ni6 O20,-2.4212537664705884
ICSD-606649.cif,Y6 Co2 Al2 S14,-1.8289987089583333
ICSD-632800.cif,Fe2 Nb8 S16,-1.3465408576923072
ICSD-411721.cif,As4 Na20 O20,-1.5826576940909094
ICSD-264213.cif,Ba12 S28 Zr8,-2.0787984729166658
ICSD-290252.cif,V2 Li4 F12,-2.9444891682407417
ICSD-410802.cif,Tl2 Ti F6,-2.7847492321296285
ICSD-409724.cif,Sc4 P6 H6 O18,-2.2778547165756304
ICSD-411865.cif,Cu4 Na20 O16 H8,-1.2519460952083332
ICSD-280190.cif,Cs8 Pd4 I24,-0.8222760733333333
ICSD-651267.cif,Y3 Tl3 S6,-1.645196242083334
ICSD-253967.cif,Sr4 Rh4 O12,-1.7012310375000006
ICSD-254432.cif,Cr4 Y4 O12,-2.6790152945
ICSD-411877.cif,Au8 F40,-0.7736081979166668
ICSD-659165.cif,Ba4 Cu4 Sc4 S12,-1.790963745416666
ICSD-253887.cif,Cu2 Ta4 O12,-2.3329322397222234
ICSD-634670.cif,Ga6 Mn3 S12,-0.7195709904474553
ICSD-260895.cif,Fe4 P6 O24 B2,-2.059707991488096
ICSD-417942.cif,Tl10 Nb4 Cl18 S8,-1.0995755928125
ICSD-616240.cif,Y6 Cr2 Be2 S14,-1.6951133812500003
ICSD-634664.cif,Mn2 Ga2 S5,-0.7365203472701146
ICSD-600730.cif,Pb4 Se4,-0.5707689683333332
ICSD-418454.cif,O24 S6 Mg4 Ca2,-2.104251011666668
ICSD-417954.cif,Tl3 As3 F18,-2.1458299284375
ICSD-290876.cif,Pb Zr O3,-2.518671235500001
ICSD-432740.cif,Sb8 Zn6 F12 O12,-1.8123443672368424
ICSD-263128.cif,Ti4 Ge4 S12,-1.0631979513333327
ICSD-261343.cif,Li4 Zn4 F4 S4 O16,-1.8516062827604167
ICSD-759759.cif,Mn2 O4,-1.5675238279885058
ICSD-261454.cif,Ba4 Y2 Ta2 O12,-3.213511152000001
ICSD-262051.cif,Ba6 N3 Cl3,-1.3009643021875004
ICSD-432224.cif,Bi9 Te3 I3,-0.2068219180833334
ICSD-608322.cif,La6 Ti2 Al2 S14,-1.9411908532638888
ICSD-616274.cif,La6 Ga2 Be2 S14,-1.7221412032291663
ICSD-260008.cif,Te8 Sc8 F8 O24,-2.446757153611112
ICSD-616878.cif,Ni4 Bi4 Se4,-0.3313086972222224
ICSD-429695.cif,Ca8 Sn4 S16,-1.5535240719642849
ICSD-414591.cif,La16 N8 Te12,-1.5389105488888883
ICSD-429640.cif,Ba3 Ta Fe3 Si2 O14,-2.4695914208695653
ICSD-432131.cif,Li4 Co4 P4 O16,-2.10610096579932
ICSD-615918.cif,Ba4 Hf4 S12,-2.0397804535
ICSD-426852.cif,Ni2 Sb4 O12,-1.2343687788888889
ICSD-427045.cif,Sb8 Co6 F12 O12,-1.829826662236842
ICSD-619332.cif,Ca8 Ge4 S16,-1.5575265150000004
ICSD-639886.cif,In4 Li4 O8,-1.7371489064583332
ICSD-651629.cif,Sb6 Te9,-0.1301001939999996
ICSD-262708.cif,Cd2 Ti2 O6,-2.295217600333332
ICSD-626703.cif,Cr8 Se12,-0.3151400195000001
ICSD-262716.cif,Na2 Ba Mg P2 O8,-2.586471818180272
ICSD-260945.cif,As2 Cs10 P8 Se24,-0.646087724161255
ICSD-417372.cif,Au Cs Cl3,-0.9835347832500002
ICSD-418009.cif,Br2 La2 P,-1.8047218539523808
ICSD-260163.cif,Tc8 Br32,-0.28961268475
ICSD-280755.cif,Si2 F12 N4 H16,-1.6205883822058826
ICSD-421546.cif,Sb2 Zn8 K2 O14,-1.5095402861538458
ICSD-252433.cif,Li6 Os6 O18,-1.3542673466666666
ICSD-255631.cif,Rh2 Cl12 Na6,-1.4147353182499998
ICSD-626392.cif,Cr2 Nb6 S12,-1.2774126229999994
ICSD-651241.cif,Tl6 S6,-0.3260979299999995
ICSD-632443.cif,S2 Fe Li2,-1.2410845343333332
ICSD-262924.cif,Cs I3 Sn,-0.9700583945000002
ICSD-431430.cif,Na8 Cd4 P4 O16 F4,-2.181653666779101
ICSD-409674.cif,W4 Cs8 Cl24,-1.3718182919444446
ICSD-417373.cif,Au Cs Cl3,-0.9835365792500004
ICSD-281318.cif,Li4 In4 Si4 O16,-2.277759989047619
ICSD-262078.cif,K12 Al4 F24,-3.16494777375
ICSD-261175.cif,Ga4 Te6 O18,-1.3267373844642858
ICSD-261130.cif,Sr2 V12 O22,-2.476822956111112
ICSD-651412.cif,Zn4 Y8 S16,-1.8769704832142853
ICSD-280576.cif,Cd As2 O6,-1.250154627222222
ICSD-432878.cif,Mn4 Te2 O12,-1.521062252177522
ICSD-620451.cif,Cd Tl Se2,-0.336539509583333
ICSD-412444.cif,Cs3 Nb3 F18,-3.2526935516666664
ICSD-415451.cif,Ag2 Ni2 O4,-0.7223370462500007
ICSD-409541.cif,Ag6 Cr2 O8 Cl2,-0.9777179795833336
ICSD-427115.cif,Pb8 I4 Na4 O24,-0.9427935286250004
ICSD-410849.cif,Ga4 F16 N4 H16,-1.5979407146250004
ICSD-639980.cif,In6 Mn3 Se12,-0.3929395993760264
ICSD-616136.cif,Ba2 Zr2 Se6,-1.6470122680000003
ICSD-280462.cif,K8 Pt4 Cl24,-1.2413936522222224
ICSD-433059.cif,Cs Sc3 F6 Se2 O6,-2.789619808796296
ICSD-651073.cif,Sr4 Y8 S16,-2.308923812857142
ICSD-434768.cif,Ta4 O8 N4 Sr4,-2.4125344990000004
ICSD-430520.cif,K4 Se4,-0.9517232583333336
ICSD-650031.cif,Sn3 Rb3 S6,-0.8133433142708331
ICSD-411202.cif,Te18 Zr15,-0.8778351172727267
ICSD-401350.cif,Ag4 V4 Cd4 O16,-1.5891523642857146
ICSD-413972.cif,As4 Cu4 F28,-1.874778548194444
ICSD-429243.cif,Sb2 F12 O4 N2,-1.6269950790000005
ICSD-608836.cif,Y6 Ni2 Al2 S14,-1.7371454560416673
ICSD-416040.cif,K3 Na Ru2 O8,-1.3406926571428577
ICSD-413165.cif,Mg6 P6 Se18,-0.612077701952381
ICSD-626704.cif,Cr2 Se2,-0.1252360508333341
ICSD-417512.cif,Mn4 F16 O4 Li4 H8,-2.1031272699776498
ICSD-427481.cif,Ba4 La8 O16,-3.0746099800000004
ICSD-607565.cif,La6 Fe2 Al2 S14,-1.9200556981250003
ICSD-260946.cif,S24 P8 Cs10 As2,-0.9146294993885288
ICSD-401454.cif,V4 Cd4 Cu4 O16,-1.637345636071429
ICSD-268105.cif,Ba2 Zr2 Ge6 O18,-2.330362309642858
ICSD-261535.cif,Ca8 Sb8 O28,-2.1632565247727267
ICSD-258634.cif,Ba8 Y4 Os4 O24,-2.4515520530000003
ICSD-260410.cif,Mo6 Zn4 O16,-1.8456534392307693
ICSD-760135.cif,Li6 Sb6 O18,-1.682499459666667
ICSD-260887.cif,Mo2 Fe Cs O8,-1.9897802872916683
ICSD-415780.cif,La8 N4 S6,-1.9063963000000004
ICSD-262284.cif,Pb8 Mg4 W4 O24,-1.94985848425
ICSD-258178.cif,In6 Te3 O18,-1.3761817881481493
ICSD-617200.cif,Bi3 Tl3 Te6,-0.3121631237499998
ICSD-601338.cif,Co2 S2,-1.052590515
ICSD-254191.cif,Mn Ge Te O6,-1.2695424417369097
ICSD-401026.cif,Na6 Ti9 Cl24,-1.4565536828205126
ICSD-281549.cif,O12 In4 La4,-2.4620050125000006
ICSD-261453.cif,Ba8 Y4 Ta4 O24,-3.2124289790000007
ICSD-632807.cif,Fe4 Nb8 Se16,-0.6914718502380949
ICSD-608298.cif,La6 Mg2 Al2 S14,-1.9786078297916667
ICSD-261938.cif,Pb4 Te8 Cu4 O28,-0.983943746893939
ICSD-605616.cif,Ni3 Ag3 Se6,-0.2232649545833333
ICSD-264201.cif,Bi12 Te6 I6,-0.2643629705208337
ICSD-257906.cif,Sr8 Cr6 O20,-2.401981512352941
ICSD-606601.cif,La6 Co2 Al2 S14,-1.856846194375
ICSD-620416.cif,Se8 Cd4,-0.3361211644444448
ICSD-624300.cif,Co2 Nb8 S16,-1.3231656411538462
ICSD-650842.cif,S4 Sc4,-1.8888291025
ICSD-612311.cif,Au4 Tl16 Se12,-0.208859936875
ICSD-260029.cif,Hg6 Sn6 O18,-1.0431122127500003
ICSD-611058.cif,Ni4 As4 S4,-0.4979663108333335
ICSD-432184.cif,Li4 Co4 P4 O16,-2.0950202904421777
ICSD-429825.cif,Mn V2 O8 Ba Li2,-2.3952798979022987
ICSD-624982.cif,Se8 Co4,-0.6069311902777782
ICSD-281441.cif,Hg4 La4 Cs4 Se12,-1.2719093575000002
ICSD-608323.cif,La6 V2 Al2 S14,-1.8583881697916669
ICSD-624624.cif,Co8 P8 Se8,-0.7834462242261905
ICSD-402273.cif,Na4 Sc4 Cl16,-2.042470526666667
ICSD-380147.cif,Mn2 Na2 S6 O6 H12 N6 C6,-0.5678258860732761
ICSD-258974.cif,Ca6 C6 O18,-2.287843696000001
ICSD-620316.cif,Cd4 S4,-0.6375319912499999
ICSD-616005.cif,Ba4 O4,-2.486855170000001
ICSD-254193.cif,Pb Ge Te O6,-1.3352992537962958
ICSD-254371.cif,Ta6 Pb3 V6 O33,-2.5210381490104177
ICSD-412142.cif,Ba8 Li4 Os4 O24,-2.0269479010833336
ICSD-260289.cif,Rb Ca2 Nb3 O10,-2.8476605453125003
ICSD-281551.cif,Mg I2,-1.0805860825
ICSD-262056.cif,Ba6 N3 Br3,-1.1888469264583332
ICSD-651032.cif,Sn4 Sr4 S12,-1.2477125087499998
ICSD-652768.cif,Sn4 Tl16 Te12,-0.28913684921875
ICSD-253332.cif,Sr Mo O3,-2.4160158480000007
ICSD-418476.cif,Tl3 Sc3 Te6,-0.9417625308333336
ICSD-290318.cif,Rb8 Na4 Al4 F24,-3.18232143075
ICSD-629329.cif,Te8 Cu4,-0.0087856786111112
ICSD-416454.cif,Ba2 V12 O22,-2.4604902991666657
ICSD-254259.cif,Sc4 K8 Si8 O24 F4,-2.904468250520834
ICSD-418475.cif,Tl3 Sc3 Se6,-1.2755808716666663
ICSD-261129.cif,Sr2 V12 O22,-2.4346858891666665
ICSD-416608.cif,As2 F12 Li2 O6 H12,-1.6718613185784312
ICSD-262123.cif,As4 Na4 Ca4 O16,-2.120143865714286
ICSD-261795.cif,Sr6 B3 N6 Br3,-1.4198426598611116
ICSD-261937.cif,Sr4 Te8 Cu4 O28,-1.3714407637121209
ICSD-290335.cif,Li4 Fe4 P4 O16,-2.2230130125850343
ICSD-412126.cif,Nb8 Rb2 Cl22,-1.410050924296875
ICSD-626479.cif,Cr12 O18,-1.7656672420000006
ICSD-620526.cif,Cd4 Te4,-0.2748003070833329
ICSD-607623.cif,Y6 Fe2 Al2 S14,-1.8906653747916669
ICSD-259385.cif,Ba8 Cd4 Os4 O24,-1.79200070675
ICSD-410769.cif,Sr6 Cl3 N3,-1.4281087905208338
ICSD-413876.cif,Tl8 Ca12 O24,-1.9446109575000003
ICSD-607619.cif,Fe3 Al6 S12,-1.2374311014285715
ICSD-603582.cif,V Te2,-0.3183204077777777
ICSD-401664.cif,Cs12 Cl4 O4,-1.3906334407500005
ICSD-617113.cif,Bi3 Tl3 Se6,-0.4520931870833334
ICSD-414019.cif,La18 Sb10 O10,-2.138535986842106
ICSD-262710.cif,Cd4 Ti4 O12,-2.253606853833334
ICSD-292066.cif,Te7 Ge Sb4,-0.1225315847222218
ICSD-258030.cif,K4 Ca4 F12,-3.47140398425
ICSD-260003.cif,I4 Na4 O8 F8,-1.4618184581250002
ICSD-261204.cif,O16 Co4 S4 N8 H16,-0.8723128997916673
ICSD-426677.cif,La6 Co2 Ga2 S14,-1.7654400040625002
ICSD-616101.cif,Ba4 Y8 S16,-2.3190419010714294
ICSD-416281.cif,Ag8 Te8 O28,-0.694793596666666
ICSD-258941.cif,Cs6 Al4 F18,-3.295617663660715
ICSD-409293.cif,K4 Cu4 Hf4 S12,-1.465735634583334
ICSD-411518.cif,Ta4 Cl28 S4 O4,-1.1113021386250002
ICSD-280947.cif,Cs Al Mo2 O8,-2.330694319583334
ICSD-417675.cif,Ag12 Sb4 O16,-0.6968867790625
ICSD-280167.cif,Ba3 Ni6 P6 O24,-1.965829260347985
ICSD-608441.cif,Mg3 Al6 S12,-1.3284187978571431
ICSD-417355.cif,In2 I6 O18,-0.5810877531730774
ICSD-616991.cif,Pt4 Bi4 Se4,-0.3882620555555552
ICSD-425125.cif,Sb4 Se12 Na12,-0.8425425428571428
ICSD-409697.cif,Fe I2 O6 H24 C6,-0.5215937126282051
ICSD-253579.cif,Rb3 Zn6 Cl6 O9 B3,-1.8555743777777784
ICSD-651070.cif,Sr2 Ti2 S6,-1.7192801903333332
ICSD-256039.cif,Rb2 Ti F6,-3.2762799932407414
ICSD-650254.cif,Rh4 Sb4 Se4,-0.6346752713888885
ICSD-260162.cif,Tc4 Br12,-0.3658879318749997
ICSD-254431.cif,Cr4 Bi4 O12,-1.3504085490000002
ICSD-264323.cif,Pb8 O24 F2 Na2 Te8,-1.298434982291667
ICSD-421317.cif,Bi2 Tl6 Cl12,-1.0353099117500002
ICSD-281127.cif,Ba6 Na2 Ru4 O18,-1.8706957406666669
ICSD-602124.cif,Ge4 Te4,-0.0724507595833334
ICSD-616131.cif,Ba2 Ti2 Se6,-1.4979789813333333
ICSD-423274.cif,Nb2 K2 Na2 F10 O2,-3.053004567083333
ICSD-624862.cif,Co4 Sb4 S4,-0.7735416449999999
ICSD-601166.cif,Zr S2,-1.82494963
ICSD-412143.cif,Ba8 Na4 Os4 O24,-1.97191097775
ICSD-616104.cif,Ba4 Zr4 S12,-2.0458041755000003
ICSD-425945.cif,Cs8 La4 Cl24 Na4,-2.1332430955
ICSD-629347.cif,Cu4 Tl16 Te12,-0.1284431124999998
ICSD-279607.cif,Ba6 V4 S8 O6,-2.1791391079166664
ICSD-610764.cif,K12 As4 S12,-1.0815145010714282
ICSD-413432.cif,K6 Sc2 Si4 O14,-2.6949295288461537
ICSD-651024.cif,Sn8 S12,-0.5652312625
ICSD-652041.cif,Se2 Ti2,-1.0983291441666667
ICSD-616129.cif,Ba2 Ta2 Se6,-1.3099251969999997
ICSD-300020.cif,Ag2 Al2 O4,-1.9909721081250007
ICSD-650710.cif,Te8 Ru4,-0.4207765827777775
ICSD-259862.cif,Si S2,-0.7320110599999996
ICSD-431399.cif,Ag4 Nb4 Se8 O28,-1.3500874998484842
ICSD-262318.cif,Ba8 Mg4 W4 O24,-2.77019060625